<?xml version="1.0"?>
<VTKFile type="UnstructuredGrid"  version="0.1"  >
<UnstructuredGrid>
<Piece  NumberOfPoints="145" NumberOfCells="144">
<Points>
<DataArray  type="Float64"  NumberOfComponents="3"  format="ascii">0 0 0  0.006944444444444444 0 0  0.01388888888888889 0 0  0.02083333333333333 0 0  0.02777777777777778 0 0  0.03472222222222222 0 0  0.04166666666666666 0 0  0.04861111111111111 0 0  0.05555555555555555 0 0  0.0625 0 0  0.06944444444444445 0 0  0.0763888888888889 0 0  0.08333333333333333 0 0  0.09027777777777778 0 0  0.09722222222222222 0 0  0.1041666666666667 0 0  0.1111111111111111 0 0  0.1180555555555556 0 0  0.125 0 0  0.1319444444444444 0 0  0.1388888888888889 0 0  0.1458333333333333 0 0  0.1527777777777778 0 0  0.1597222222222222 0 0  0.1666666666666667 0 0  0.1736111111111111 0 0  0.1805555555555556 0 0  0.1875 0 0  0.1944444444444444 0 0  0.2013888888888889 0 0  0.2083333333333333 0 0  0.2152777777777778 0 0  0.2222222222222222 0 0  0.2291666666666667 0 0  0.2361111111111111 0 0  0.2430555555555556 0 0  0.25 0 0  0.2569444444444444 0 0  0.2638888888888889 0 0  0.2708333333333333 0 0  0.2777777777777778 0 0  0.2847222222222222 0 0  0.2916666666666667 0 0  0.2986111111111111 0 0  0.3055555555555556 0 0  0.3125 0 0  0.3194444444444444 0 0  0.3263888888888889 0 0  0.3333333333333333 0 0  0.3402777777777778 0 0  0.3472222222222222 0 0  0.3541666666666667 0 0  0.3611111111111111 0 0  0.3680555555555556 0 0  0.375 0 0  0.3819444444444444 0 0  0.3888888888888889 0 0  0.3958333333333333 0 0  0.4027777777777778 0 0  0.4097222222222222 0 0  0.4166666666666667 0 0  0.4236111111111111 0 0  0.4305555555555556 0 0  0.4375 0 0  0.4444444444444444 0 0  0.4513888888888889 0 0  0.4583333333333333 0 0  0.4652777777777778 0 0  0.4722222222222222 0 0  0.4791666666666667 0 0  0.4861111111111111 0 0  0.4930555555555556 0 0  0.5 0 0  0.5069444444444444 0 0  0.5138888888888888 0 0  0.5208333333333334 0 0  0.5277777777777778 0 0  0.5347222222222222 0 0  0.5416666666666666 0 0  0.5486111111111112 0 0  0.5555555555555556 0 0  0.5625 0 0  0.5694444444444444 0 0  0.5763888888888888 0 0  0.5833333333333334 0 0  0.5902777777777778 0 0  0.5972222222222222 0 0  0.6041666666666666 0 0  0.6111111111111112 0 0  0.6180555555555556 0 0  0.625 0 0  0.6319444444444444 0 0  0.6388888888888888 0 0  0.6458333333333334 0 0  0.6527777777777778 0 0  0.6597222222222222 0 0  0.6666666666666666 0 0  0.6736111111111112 0 0  0.6805555555555556 0 0  0.6875 0 0  0.6944444444444444 0 0  0.7013888888888888 0 0  0.7083333333333334 0 0  0.7152777777777778 0 0  0.7222222222222222 0 0  0.7291666666666666 0 0  0.7361111111111112 0 0  0.7430555555555556 0 0  0.75 0 0  0.7569444444444444 0 0  0.7638888888888888 0 0  0.7708333333333334 0 0  0.7777777777777778 0 0  0.7847222222222222 0 0  0.7916666666666666 0 0  0.7986111111111112 0 0  0.8055555555555556 0 0  0.8125 0 0  0.8194444444444444 0 0  0.8263888888888888 0 0  0.8333333333333334 0 0  0.8402777777777778 0 0  0.8472222222222222 0 0  0.8541666666666666 0 0  0.8611111111111112 0 0  0.8680555555555556 0 0  0.875 0 0  0.8819444444444444 0 0  0.8888888888888888 0 0  0.8958333333333334 0 0  0.9027777777777778 0 0  0.9097222222222222 0 0  0.9166666666666666 0 0  0.9236111111111112 0 0  0.9305555555555556 0 0  0.9375 0 0  0.9444444444444444 0 0  0.9513888888888888 0 0  0.9583333333333334 0 0  0.9652777777777778 0 0  0.9722222222222222 0 0  0.9791666666666666 0 0  0.9861111111111112 0 0  0.9930555555555556 0 0  1 0 0  </DataArray>
</Points>
<Cells>
<DataArray  type="UInt32"  Name="connectivity"  format="ascii">0 1  1 2  2 3  3 4  4 5  5 6  6 7  7 8  8 9  9 10  10 11  11 12  12 13  13 14  14 15  15 16  16 17  17 18  18 19  19 20  20 21  21 22  22 23  23 24  24 25  25 26  26 27  27 28  28 29  29 30  30 31  31 32  32 33  33 34  34 35  35 36  36 37  37 38  38 39  39 40  40 41  41 42  42 43  43 44  44 45  45 46  46 47  47 48  48 49  49 50  50 51  51 52  52 53  53 54  54 55  55 56  56 57  57 58  58 59  59 60  60 61  61 62  62 63  63 64  64 65  65 66  66 67  67 68  68 69  69 70  70 71  71 72  72 73  73 74  74 75  75 76  76 77  77 78  78 79  79 80  80 81  81 82  82 83  83 84  84 85  85 86  86 87  87 88  88 89  89 90  90 91  91 92  92 93  93 94  94 95  95 96  96 97  97 98  98 99  99 100  100 101  101 102  102 103  103 104  104 105  105 106  106 107  107 108  108 109  109 110  110 111  111 112  112 113  113 114  114 115  115 116  116 117  117 118  118 119  119 120  120 121  121 122  122 123  123 124  124 125  125 126  126 127  127 128  128 129  129 130  130 131  131 132  132 133  133 134  134 135  135 136  136 137  137 138  138 139  139 140  140 141  141 142  142 143  143 144  </DataArray>
<DataArray  type="UInt32"  Name="offsets"  format="ascii">2 4 6 8 10 12 14 16 18 20 22 24 26 28 30 32 34 36 38 40 42 44 46 48 50 52 54 56 58 60 62 64 66 68 70 72 74 76 78 80 82 84 86 88 90 92 94 96 98 100 102 104 106 108 110 112 114 116 118 120 122 124 126 128 130 132 134 136 138 140 142 144 146 148 150 152 154 156 158 160 162 164 166 168 170 172 174 176 178 180 182 184 186 188 190 192 194 196 198 200 202 204 206 208 210 212 214 216 218 220 222 224 226 228 230 232 234 236 238 240 242 244 246 248 250 252 254 256 258 260 262 264 266 268 270 272 274 276 278 280 282 284 286 288 </DataArray>
<DataArray  type="UInt8"  Name="types"  format="ascii">3 3 3 3 3 3 3 3 3 3 3 3 3 3 3 3 3 3 3 3 3 3 3 3 3 3 3 3 3 3 3 3 3 3 3 3 3 3 3 3 3 3 3 3 3 3 3 3 3 3 3 3 3 3 3 3 3 3 3 3 3 3 3 3 3 3 3 3 3 3 3 3 3 3 3 3 3 3 3 3 3 3 3 3 3 3 3 3 3 3 3 3 3 3 3 3 3 3 3 3 3 3 3 3 3 3 3 3 3 3 3 3 3 3 3 3 3 3 3 3 3 3 3 3 3 3 3 3 3 3 3 3 3 3 3 3 3 3 3 3 3 3 3 3 </DataArray>
</Cells>
<CellData  Scalars="f_25"> 
<DataArray  type="Float64"  Name="f_25"  format="ascii">0.0000000000000000e+00   0.0000000000000000e+00   0.0000000000000000e+00   0.0000000000000000e+00   0.0000000000000000e+00   0.0000000000000000e+00   0.0000000000000000e+00   0.0000000000000000e+00   0.0000000000000000e+00   0.0000000000000000e+00   0.0000000000000000e+00   0.0000000000000000e+00   0.0000000000000000e+00   0.0000000000000000e+00   0.0000000000000000e+00   0.0000000000000000e+00   0.0000000000000000e+00   0.0000000000000000e+00   0.0000000000000000e+00   0.0000000000000000e+00   0.0000000000000000e+00   0.0000000000000000e+00   0.0000000000000000e+00   0.0000000000000000e+00   0.0000000000000000e+00   0.0000000000000000e+00   0.0000000000000000e+00   0.0000000000000000e+00   0.0000000000000000e+00   0.0000000000000000e+00   0.0000000000000000e+00   0.0000000000000000e+00   0.0000000000000000e+00   0.0000000000000000e+00   0.0000000000000000e+00   0.0000000000000000e+00   0.0000000000000000e+00   -0.0000000000000000e+00   -0.0000000000000000e+00   -0.0000000000000000e+00   -0.0000000000000000e+00   -0.0000000000000000e+00   -0.0000000000000000e+00   -0.0000000000000000e+00   -0.0000000000000000e+00   -0.0000000000000000e+00   -0.0000000000000000e+00   -0.0000000000000000e+00   -0.0000000000000000e+00   -0.0000000000000000e+00   -0.0000000000000000e+00   -0.0000000000000000e+00   -0.0000000000000000e+00   -0.0000000000000000e+00   -0.0000000000000000e+00   -0.0000000000000000e+00   -0.0000000000000000e+00   -0.0000000000000000e+00   -0.0000000000000000e+00   -0.0000000000000000e+00   -0.0000000000000000e+00   -0.0000000000000000e+00   -1.2213820074977733e-02   -1.8704000586527236e-01   -3.4527170508559024e-01   -4.8675791318619410e-01   -6.1134283641952614e-01   -7.1886672139387997e-01   -8.0916675285482320e-01   -8.8207801845957334e-01   -9.3743453898228601e-01   -9.7507036198233443e-01   -9.9482071648049697e-01   -9.9652322561882656e-01   -9.8001917362919500e-01   -9.4515482270609752e-01   -8.9178277457611266e-01   -8.1976337068744698e-01   -7.2896612401801342e-01   -6.1927117453351954e-01   -4.9057075933363059e-01   -3.4277068752443363e-01   -1.7579180887047485e-01   -0.0000000000000000e+00   -0.0000000000000000e+00   -0.0000000000000000e+00   -0.0000000000000000e+00   -0.0000000000000000e+00   -0.0000000000000000e+00   -0.0000000000000000e+00   -0.0000000000000000e+00   -0.0000000000000000e+00   -0.0000000000000000e+00   -0.0000000000000000e+00   -0.0000000000000000e+00   -0.0000000000000000e+00   -0.0000000000000000e+00   -0.0000000000000000e+00   -0.0000000000000000e+00   -0.0000000000000000e+00   -0.0000000000000000e+00   -0.0000000000000000e+00   -0.0000000000000000e+00   -0.0000000000000000e+00   -0.0000000000000000e+00   -0.0000000000000000e+00   -0.0000000000000000e+00   0.0000000000000000e+00   0.0000000000000000e+00   0.0000000000000000e+00   0.0000000000000000e+00   0.0000000000000000e+00   0.0000000000000000e+00   0.0000000000000000e+00   0.0000000000000000e+00   0.0000000000000000e+00   0.0000000000000000e+00   0.0000000000000000e+00   0.0000000000000000e+00   0.0000000000000000e+00   0.0000000000000000e+00   0.0000000000000000e+00   0.0000000000000000e+00   0.0000000000000000e+00   0.0000000000000000e+00   0.0000000000000000e+00   0.0000000000000000e+00   0.0000000000000000e+00   0.0000000000000000e+00   0.0000000000000000e+00   0.0000000000000000e+00   0.0000000000000000e+00   0.0000000000000000e+00   0.0000000000000000e+00   0.0000000000000000e+00   0.0000000000000000e+00   0.0000000000000000e+00   0.0000000000000000e+00   0.0000000000000000e+00   0.0000000000000000e+00   0.0000000000000000e+00   0.0000000000000000e+00   0.0000000000000000e+00   0.0000000000000000e+00   </DataArray> 
</CellData> 
</Piece>
</UnstructuredGrid>
</VTKFile>