<?xml version="1.0"?>
<VTKFile type="UnstructuredGrid"  version="0.1"  >
<UnstructuredGrid>
<Piece  NumberOfPoints="16641" NumberOfCells="32768">
<Points>
<DataArray  type="Float64"  NumberOfComponents="3"  format="ascii">0 0 0  0.0078125 0 0  0.015625 0 0  0.0234375 0 0  0.03125 0 0  0.0390625 0 0  0.046875 0 0  0.0546875 0 0  0.0625 0 0  0.0703125 0 0  0.078125 0 0  0.0859375 0 0  0.09375 0 0  0.1015625 0 0  0.109375 0 0  0.1171875 0 0  0.125 0 0  0.1328125 0 0  0.140625 0 0  0.1484375 0 0  0.15625 0 0  0.1640625 0 0  0.171875 0 0  0.1796875 0 0  0.1875 0 0  0.1953125 0 0  0.203125 0 0  0.2109375 0 0  0.21875 0 0  0.2265625 0 0  0.234375 0 0  0.2421875 0 0  0.25 0 0  0.2578125 0 0  0.265625 0 0  0.2734375 0 0  0.28125 0 0  0.2890625 0 0  0.296875 0 0  0.3046875 0 0  0.3125 0 0  0.3203125 0 0  0.328125 0 0  0.3359375 0 0  0.34375 0 0  0.3515625 0 0  0.359375 0 0  0.3671875 0 0  0.375 0 0  0.3828125 0 0  0.390625 0 0  0.3984375 0 0  0.40625 0 0  0.4140625 0 0  0.421875 0 0  0.4296875 0 0  0.4375 0 0  0.4453125 0 0  0.453125 0 0  0.4609375 0 0  0.46875 0 0  0.4765625 0 0  0.484375 0 0  0.4921875 0 0  0.5 0 0  0.5078125 0 0  0.515625 0 0  0.5234375 0 0  0.53125 0 0  0.5390625 0 0  0.546875 0 0  0.5546875 0 0  0.5625 0 0  0.5703125 0 0  0.578125 0 0  0.5859375 0 0  0.59375 0 0  0.6015625 0 0  0.609375 0 0  0.6171875 0 0  0.625 0 0  0.6328125 0 0  0.640625 0 0  0.6484375 0 0  0.65625 0 0  0.6640625 0 0  0.671875 0 0  0.6796875 0 0  0.6875 0 0  0.6953125 0 0  0.703125 0 0  0.7109375 0 0  0.71875 0 0  0.7265625 0 0  0.734375 0 0  0.7421875 0 0  0.75 0 0  0.7578125 0 0  0.765625 0 0  0.7734375 0 0  0.78125 0 0  0.7890625 0 0  0.796875 0 0  0.8046875 0 0  0.8125 0 0  0.8203125 0 0  0.828125 0 0  0.8359375 0 0  0.84375 0 0  0.8515625 0 0  0.859375 0 0  0.8671875 0 0  0.875 0 0  0.8828125 0 0  0.890625 0 0  0.8984375 0 0  0.90625 0 0  0.9140625 0 0  0.921875 0 0  0.9296875 0 0  0.9375 0 0  0.9453125 0 0  0.953125 0 0  0.9609375 0 0  0.96875 0 0  0.9765625 0 0  0.984375 0 0  0.9921875 0 0  1 0 0  0 0.0078125 0  0.0078125 0.0078125 0  0.015625 0.0078125 0  0.0234375 0.0078125 0  0.03125 0.0078125 0  0.0390625 0.0078125 0  0.046875 0.0078125 0  0.0546875 0.0078125 0  0.0625 0.0078125 0  0.0703125 0.0078125 0  0.078125 0.0078125 0  0.0859375 0.0078125 0  0.09375 0.0078125 0  0.1015625 0.0078125 0  0.109375 0.0078125 0  0.1171875 0.0078125 0  0.125 0.0078125 0  0.1328125 0.0078125 0  0.140625 0.0078125 0  0.1484375 0.0078125 0  0.15625 0.0078125 0  0.1640625 0.0078125 0  0.171875 0.0078125 0  0.1796875 0.0078125 0  0.1875 0.0078125 0  0.1953125 0.0078125 0  0.203125 0.0078125 0  0.2109375 0.0078125 0  0.21875 0.0078125 0  0.2265625 0.0078125 0  0.234375 0.0078125 0  0.2421875 0.0078125 0  0.25 0.0078125 0  0.2578125 0.0078125 0  0.265625 0.0078125 0  0.2734375 0.0078125 0  0.28125 0.0078125 0  0.2890625 0.0078125 0  0.296875 0.0078125 0  0.3046875 0.0078125 0  0.3125 0.0078125 0  0.3203125 0.0078125 0  0.328125 0.0078125 0  0.3359375 0.0078125 0  0.34375 0.0078125 0  0.3515625 0.0078125 0  0.359375 0.0078125 0  0.3671875 0.0078125 0  0.375 0.0078125 0  0.3828125 0.0078125 0  0.390625 0.0078125 0  0.3984375 0.0078125 0  0.40625 0.0078125 0  0.4140625 0.0078125 0  0.421875 0.0078125 0  0.4296875 0.0078125 0  0.4375 0.0078125 0  0.4453125 0.0078125 0  0.453125 0.0078125 0  0.4609375 0.0078125 0  0.46875 0.0078125 0  0.4765625 0.0078125 0  0.484375 0.0078125 0  0.4921875 0.0078125 0  0.5 0.0078125 0  0.5078125 0.0078125 0  0.515625 0.0078125 0  0.5234375 0.0078125 0  0.53125 0.0078125 0  0.5390625 0.0078125 0  0.546875 0.0078125 0  0.5546875 0.0078125 0  0.5625 0.0078125 0  0.5703125 0.0078125 0  0.578125 0.0078125 0  0.5859375 0.0078125 0  0.59375 0.0078125 0  0.6015625 0.0078125 0  0.609375 0.0078125 0  0.6171875 0.0078125 0  0.625 0.0078125 0  0.6328125 0.0078125 0  0.640625 0.0078125 0  0.6484375 0.0078125 0  0.65625 0.0078125 0  0.6640625 0.0078125 0  0.671875 0.0078125 0  0.6796875 0.0078125 0  0.6875 0.0078125 0  0.6953125 0.0078125 0  0.703125 0.0078125 0  0.7109375 0.0078125 0  0.71875 0.0078125 0  0.7265625 0.0078125 0  0.734375 0.0078125 0  0.7421875 0.0078125 0  0.75 0.0078125 0  0.7578125 0.0078125 0  0.765625 0.0078125 0  0.7734375 0.0078125 0  0.78125 0.0078125 0  0.7890625 0.0078125 0  0.796875 0.0078125 0  0.8046875 0.0078125 0  0.8125 0.0078125 0  0.8203125 0.0078125 0  0.828125 0.0078125 0  0.8359375 0.0078125 0  0.84375 0.0078125 0  0.8515625 0.0078125 0  0.859375 0.0078125 0  0.8671875 0.0078125 0  0.875 0.0078125 0  0.8828125 0.0078125 0  0.890625 0.0078125 0  0.8984375 0.0078125 0  0.90625 0.0078125 0  0.9140625 0.0078125 0  0.921875 0.0078125 0  0.9296875 0.0078125 0  0.9375 0.0078125 0  0.9453125 0.0078125 0  0.953125 0.0078125 0  0.9609375 0.0078125 0  0.96875 0.0078125 0  0.9765625 0.0078125 0  0.984375 0.0078125 0  0.9921875 0.0078125 0  1 0.0078125 0  0 0.015625 0  0.0078125 0.015625 0  0.015625 0.015625 0  0.0234375 0.015625 0  0.03125 0.015625 0  0.0390625 0.015625 0  0.046875 0.015625 0  0.0546875 0.015625 0  0.0625 0.015625 0  0.0703125 0.015625 0  0.078125 0.015625 0  0.0859375 0.015625 0  0.09375 0.015625 0  0.1015625 0.015625 0  0.109375 0.015625 0  0.1171875 0.015625 0  0.125 0.015625 0  0.1328125 0.015625 0  0.140625 0.015625 0  0.1484375 0.015625 0  0.15625 0.015625 0  0.1640625 0.015625 0  0.171875 0.015625 0  0.1796875 0.015625 0  0.1875 0.015625 0  0.1953125 0.015625 0  0.203125 0.015625 0  0.2109375 0.015625 0  0.21875 0.015625 0  0.2265625 0.015625 0  0.234375 0.015625 0  0.2421875 0.015625 0  0.25 0.015625 0  0.2578125 0.015625 0  0.265625 0.015625 0  0.2734375 0.015625 0  0.28125 0.015625 0  0.2890625 0.015625 0  0.296875 0.015625 0  0.3046875 0.015625 0  0.3125 0.015625 0  0.3203125 0.015625 0  0.328125 0.015625 0  0.3359375 0.015625 0  0.34375 0.015625 0  0.3515625 0.015625 0  0.359375 0.015625 0  0.3671875 0.015625 0  0.375 0.015625 0  0.3828125 0.015625 0  0.390625 0.015625 0  0.3984375 0.015625 0  0.40625 0.015625 0  0.4140625 0.015625 0  0.421875 0.015625 0  0.4296875 0.015625 0  0.4375 0.015625 0  0.4453125 0.015625 0  0.453125 0.015625 0  0.4609375 0.015625 0  0.46875 0.015625 0  0.4765625 0.015625 0  0.484375 0.015625 0  0.4921875 0.015625 0  0.5 0.015625 0  0.5078125 0.015625 0  0.515625 0.015625 0  0.5234375 0.015625 0  0.53125 0.015625 0  0.5390625 0.015625 0  0.546875 0.015625 0  0.5546875 0.015625 0  0.5625 0.015625 0  0.5703125 0.015625 0  0.578125 0.015625 0  0.5859375 0.015625 0  0.59375 0.015625 0  0.6015625 0.015625 0  0.609375 0.015625 0  0.6171875 0.015625 0  0.625 0.015625 0  0.6328125 0.015625 0  0.640625 0.015625 0  0.6484375 0.015625 0  0.65625 0.015625 0  0.6640625 0.015625 0  0.671875 0.015625 0  0.6796875 0.015625 0  0.6875 0.015625 0  0.6953125 0.015625 0  0.703125 0.015625 0  0.7109375 0.015625 0  0.71875 0.015625 0  0.7265625 0.015625 0  0.734375 0.015625 0  0.7421875 0.015625 0  0.75 0.015625 0  0.7578125 0.015625 0  0.765625 0.015625 0  0.7734375 0.015625 0  0.78125 0.015625 0  0.7890625 0.015625 0  0.796875 0.015625 0  0.8046875 0.015625 0  0.8125 0.015625 0  0.8203125 0.015625 0  0.828125 0.015625 0  0.8359375 0.015625 0  0.84375 0.015625 0  0.8515625 0.015625 0  0.859375 0.015625 0  0.8671875 0.015625 0  0.875 0.015625 0  0.8828125 0.015625 0  0.890625 0.015625 0  0.8984375 0.015625 0  0.90625 0.015625 0  0.9140625 0.015625 0  0.921875 0.015625 0  0.9296875 0.015625 0  0.9375 0.015625 0  0.9453125 0.015625 0  0.953125 0.015625 0  0.9609375 0.015625 0  0.96875 0.015625 0  0.9765625 0.015625 0  0.984375 0.015625 0  0.9921875 0.015625 0  1 0.015625 0  0 0.0234375 0  0.0078125 0.0234375 0  0.015625 0.0234375 0  0.0234375 0.0234375 0  0.03125 0.0234375 0  0.0390625 0.0234375 0  0.046875 0.0234375 0  0.0546875 0.0234375 0  0.0625 0.0234375 0  0.0703125 0.0234375 0  0.078125 0.0234375 0  0.0859375 0.0234375 0  0.09375 0.0234375 0  0.1015625 0.0234375 0  0.109375 0.0234375 0  0.1171875 0.0234375 0  0.125 0.0234375 0  0.1328125 0.0234375 0  0.140625 0.0234375 0  0.1484375 0.0234375 0  0.15625 0.0234375 0  0.1640625 0.0234375 0  0.171875 0.0234375 0  0.1796875 0.0234375 0  0.1875 0.0234375 0  0.1953125 0.0234375 0  0.203125 0.0234375 0  0.2109375 0.0234375 0  0.21875 0.0234375 0  0.2265625 0.0234375 0  0.234375 0.0234375 0  0.2421875 0.0234375 0  0.25 0.0234375 0  0.2578125 0.0234375 0  0.265625 0.0234375 0  0.2734375 0.0234375 0  0.28125 0.0234375 0  0.2890625 0.0234375 0  0.296875 0.0234375 0  0.3046875 0.0234375 0  0.3125 0.0234375 0  0.3203125 0.0234375 0  0.328125 0.0234375 0  0.3359375 0.0234375 0  0.34375 0.0234375 0  0.3515625 0.0234375 0  0.359375 0.0234375 0  0.3671875 0.0234375 0  0.375 0.0234375 0  0.3828125 0.0234375 0  0.390625 0.0234375 0  0.3984375 0.0234375 0  0.40625 0.0234375 0  0.4140625 0.0234375 0  0.421875 0.0234375 0  0.4296875 0.0234375 0  0.4375 0.0234375 0  0.4453125 0.0234375 0  0.453125 0.0234375 0  0.4609375 0.0234375 0  0.46875 0.0234375 0  0.4765625 0.0234375 0  0.484375 0.0234375 0  0.4921875 0.0234375 0  0.5 0.0234375 0  0.5078125 0.0234375 0  0.515625 0.0234375 0  0.5234375 0.0234375 0  0.53125 0.0234375 0  0.5390625 0.0234375 0  0.546875 0.0234375 0  0.5546875 0.0234375 0  0.5625 0.0234375 0  0.5703125 0.0234375 0  0.578125 0.0234375 0  0.5859375 0.0234375 0  0.59375 0.0234375 0  0.6015625 0.0234375 0  0.609375 0.0234375 0  0.6171875 0.0234375 0  0.625 0.0234375 0  0.6328125 0.0234375 0  0.640625 0.0234375 0  0.6484375 0.0234375 0  0.65625 0.0234375 0  0.6640625 0.0234375 0  0.671875 0.0234375 0  0.6796875 0.0234375 0  0.6875 0.0234375 0  0.6953125 0.0234375 0  0.703125 0.0234375 0  0.7109375 0.0234375 0  0.71875 0.0234375 0  0.7265625 0.0234375 0  0.734375 0.0234375 0  0.7421875 0.0234375 0  0.75 0.0234375 0  0.7578125 0.0234375 0  0.765625 0.0234375 0  0.7734375 0.0234375 0  0.78125 0.0234375 0  0.7890625 0.0234375 0  0.796875 0.0234375 0  0.8046875 0.0234375 0  0.8125 0.0234375 0  0.8203125 0.0234375 0  0.828125 0.0234375 0  0.8359375 0.0234375 0  0.84375 0.0234375 0  0.8515625 0.0234375 0  0.859375 0.0234375 0  0.8671
[...]
<CellData  Scalars="f_2820"> 
<DataArray  type="Float64"  Name="f_2820"  format="ascii">5.5828828619631130e-07   5.5828828619631130e-07   2.0378561077006056e-06   3.6638571992140580e-06   4.2592764610486672e-06   9.2451504986963236e-06   7.1135705037512676e-06   1.6879671120730290e-05   1.0521642357898233e-05   2.6289362077404048e-05   1.4419855668826281e-05   3.7262001295285294e-05   1.8753759378401806e-05   4.9621440461016325e-05   2.3474867200732847e-05   6.3213842153385039e-05   2.8538795986557100e-05   7.7900257306930424e-05   3.3904098763587246e-05   9.3552175762864917e-05   3.9531491808153513e-05   1.1004866409679420e-04   4.5383323178927605e-05   1.2727443525276013e-04   5.1423198221477852e-05   1.4511850496300543e-04   5.7615712001511463e-05   1.6347323812973427e-04   6.3926257409520197e-05   1.8223366573251172e-04   7.0320888548259660e-05   2.0129699614012271e-04   7.6766225613412003e-05   2.2056227031707585e-04   8.3229391615828753e-05   2.3993012621405824e-04   8.9677974092409831e-05   2.5930264785317550e-04   9.6080006652977243e-05   2.7858328127950761e-04   1.0240396660787939e-04   2.9767680412244189e-04   1.0861878572123013e-04   3.1648933878038594e-04   1.1469387180940605e-04   3.3492840142498729e-04   1.2059913936834345e-04   3.5290298071508693e-04   1.2630504776160349e-04   3.7032364131904137e-04   1.3178264576562415e-04   3.8710264825566899e-04   1.3700362147022683e-04   4.0315410875909664e-04   1.4194035668889729e-04   4.1839412890584801e-04   1.4656598515569842e-04   4.3274098265879085e-04   1.5085445388191230e-04   4.4611529130839252e-04   1.5478058712207414e-04   4.5844021154976892e-04   1.5832015245980570e-04   4.6964163063901429e-04   1.6144992857210631e-04   4.7964836723505085e-04   1.6414777426928019e-04   4.8839237666297038e-04   1.6639269843760058e-04   4.9580895943695049e-04   1.6816493053528790e-04   5.0183697196078993e-04   1.6944599130939829e-04   5.0641903838445233e-04   1.7021876341378930e-04   5.0950176263933383e-04   1.7046756161616459e-04   5.1103593970536448e-04   1.7017820228629220e-04   5.1097676518085434e-04   1.6933807185833262e-04   5.0928404223330142e-04   1.6793619395663345e-04   5.0592238500519061e-04   1.6596329487080229e-04   5.0086141753807238e-04   1.6341186705620803e-04   4.9407596725833415e-04   1.6027623032636494e-04   4.8554625203900198e-04   1.5655259040017381e-04   4.7525805983207787e-04   1.5223909441152125e-04   4.6320291977755085e-04   1.4733588306697914e-04   4.4937826372916335e-04   1.4184513898867748e-04   4.3378757703110599e-04   1.3577113090826873e-04   4.1644053735188528e-04   1.2912025319220053e-04   3.9735314029148793e-04   1.2190106033597646e-04   3.7654781044303866e-04   1.1412429591015024e-04   3.5405349658630431e-04   1.0580291548310252e-04   3.2990574952644836e-04   9.6952103011823114e-05   3.0414678110202121e-04   8.7589280172688575e-05   2.7682550280718903e-04   7.7734108085716062e-05   2.4799754241586593e-04   6.7408480865877162e-05   2.1772523693901235e-04   5.6636510418784839e-05   1.8607760019040504e-04   4.5444501878362207e-05   1.5313026318399008e-04   3.3860919066601426e-05   1.1896538552844620e-04   2.1916339335389911e-05   8.3671535929430316e-05   9.6433971265241878e-06   4.7343539843489122e-05   0.0000000000000000e+00   1.0082292241828875e-05   0.0000000000000000e+00   0.0000000000000000e+00   0.0000000000000000e+00   0.0000000000000000e+00   0.0000000000000000e+00   0.0000000000000000e+00   0.0000000000000000e+00   0.0000000000000000e+00   0.0000000000000000e+00   0.0000000000000000e+00   0.0000000000000000e+00   0.0000000000000000e+00   0.0000000000000000e+00   0.0000000000000000e+00   0.0000000000000000e+00   0.0000000000000000e+00   0.0000000000000000e+00   0.0000000000000000e+00   0.0000000000000000e+00   0.0000000000000000e+00   0.0000000000000000e+00   0.0000000000000000e+00   0.0000000000000000e+00   0.0000000000000000e+00   0.0000000000000000e+00   0.0000000000000000e+00   0.0000000000000000e+00   0.0000000000000000e+00   0.0000000000000000e+00   0.0000000000000000e+00   0.0000000000000000e+00   0.0000000000000000e+00   0.0000000000000000e+00   0.0000000000000000e+00   0.0000000000000000e+00   0.0000000000000000e+00   0.0000000000000000e+00   0.0000000000000000e+00   0.0000000000000000e+00   0.0000000000000000e+00   0.0000000000000000e+00   0.0000000000000000e+00   0.0000000000000000e+00   0.0000000000000000e+00   0.0000000000000000e+00   0.0000000000000000e+00   0.0000000000000000e+00   0.0000000000000000e+00   0.0000000000000000e+00   0.0000000000000000e+00   0.0000000000000000e+00   0.0000000000000000e+00   0.0000000000000000e+00   0.0000000000000000e+00   0.0000000000000000e+00   0.0000000000000000e+00   0.0000000000000000e+00   0.0000000000000000e+00   0.0000000000000000e+00   0.0000000000000000e+00   0.0000000000000000e+00   0.0000000000000000e+00   0.0000000000000000e+00   0.0000000000000000e+00   0.0000000000000000e+00   0.0000000000000000e+00   0.0000000000000000e+00   0.0000000000000000e+00   0.0000000000000000e+00   0.0000000000000000e+00   0.0000000000000000e+00   0.0000000000000000e+00   0.0000000000000000e+00   0.0000000000000000e+00   0.0000000000000000e+00   0.0000000000000000e+00   0.0000000000000000e+00   0.0000000000000000e+00   0.0000000000000000e+00   0.0000000000000000e+00   0.0000000000000000e+00   0.0000000000000000e+00   0.0000000000000000e+00   0.0000000000000000e+00   0.0000000000000000e+00   0.0000000000000000e+00   0.0000000000000000e+00   0.0000000000000000e+00   0.0000000000000000e+00   0.0000000000000000e+00   0.0000000000000000e+00   0.0000000000000000e+00   0.0000000000000000e+00   0.0000000000000000e+00   0.0000000000000000e+00   0.0000000000000000e+00   0.0000000000000000e+00   0.0000000000000000e+00   0.0000000000000000e+00   0.0000000000000000e+00   0.0000000000000000e+00   0.0000000000000000e+00   0.0000000000000000e+00   0.0000000000000000e+00   0.0000000000000000e+00   0.0000000000000000e+00   0.0000000000000000e+00   0.0000000000000000e+00   0.0000000000000000e+00   0.0000000000000000e+00   0.0000000000000000e+00   0.0000000000000000e+00   0.0000000000000000e+00   0.0000000000000000e+00   0.0000000000000000e+00   0.0000000000000000e+00   0.0000000000000000e+00   0.0000000000000000e+00   0.0000000000000000e+00   0.0000000000000000e+00   0.0000000000000000e+00   0.0000000000000000e+00   0.0000000000000000e+00   0.0000000000000000e+00   0.0000000000000000e+00   0.0000000000000000e+00   0.0000000000000000e+00   0.0000000000000000e+00   3.6627118851489676e-06   2.0369568987775947e-06   1.7270946926244487e-05   1.7268961851866246e-05   3.9370397863415225e-05   4.6487763612273244e-05   6.8661143451518404e-05   8.7437220131147641e-05   1.0422197741157800e-04   1.3854826321605681e-04   1.4532381665327069e-04   1.9860831819273149e-04   1.9134975532108370e-04   2.6661068324416792e-04   2.4175476635129216e-04   3.4167812647280357e-04   2.9604278550637348e-04   4.2302012434417208e-04   3.5375253235128711e-04   5.0990692906142270e-04   4.1444820931677554e-04   6.0165285117782326e-04   4.7771314974472031e-04   6.9760499179475331e-04   5.4314536134393967e-04   7.9713540774911944e-04   6.1035434857040162e-04   8.9963555388237007e-04   6.7895883284500229e-04   1.0045123010936009e-03   7.4858512421737224e-04   1.1111850840323225e-03   8.1886597909924244e-04   1.2190838830718135e-03   8.8943982924652432e-04   1.3276478381340606e-03   9.5995030061298144e-04   1.4363243517622470e-03   1.0300459616117948e-03   1.5445685778353829e-03   1.0993802567063741e-03   1.6518432190198997e-03   1.1676115908523120e-03   1.7576185753448716e-03   1.2344035383183333e-03   1.8613727985655015e-03   1.2994251548671511e-03   1.9625923171735279e-03   1.3623513763783271e-03   2.0607724037911630e-03   1.4228634900875958e-03   2.1554178619925431e-03   1.4806496669761743e-03   2.2460438136199454e-03   1.5354055456654628e-03   2.3321765707520767e-03   1.5868348595938228e-03   2.4133545788851875e-03   1.6346501003719758e-03   2.4891294197738590e-03   1.6785732110988687e-03   2.5590668638690132e-03   1.7183363041233521e-03   2.6227479634721457e-03   1.7536823983020562e-03   2.6797701786705984e-03   1.7843661712437762e-03   2.7297485288664148e-03   1.8101547223831858e-03   2.7723167632997354e-03   1.8308283430027840e-03   2.8071285444362902e-03   1.8461812895198694e-03   2.8338586384387206e-03   1.8560225565081919e-03   2.8522041071977707e-03   1.8601766460203551e-03   2.8618854965824347e-03   1.8584843298317711e-03   2.8626480156740100e-03   1.8508034012437225e-03   2.8542627017956903e-03   1.8370094130553761e-03   2.8365275661328365e-03   1.8169963982772475e-03   2.8092687146813785e-03   1.7906775700650248e-03   2.7723414391577013e-03   1.7579859972493676e-03   2.7256312723398604e-03   1.7188752517314368e-03   2.6690550021319353e-03   1.6733200237803027e-03   2.6025616384466295e-03   1.6213167012382251e-03   2.5261333266339324e-03   1.5628839083486710e-03   2.4397862011814515e-03   1.4980629998044700e-03   2.3435711727528676e-03   1.4269185052409119e-03   2.2375746416688348e-03   1.3495385194204389e-03   2.1219191302217222e-03   1.2660350330205138e-03   1.9967638263847010e-03   1.1765441986788642e-03   1.8623050306579947e-03   1.0812265267986828e-03   1.7187764977351818e-03   9.8026700537767416e-04   1.5664496642515667e-03   8.7387513791223445e-04   1.4056337535565989e-03   7.6228489322434606e-04   1.2366757481325976e-03   6.4575456086164154e-04   1.0599602199725330e-03   5.2456650552153952e-04   8.7590900892850943e-04   3.9902681375380536e-04   6.8498073873481092e-04   2.6946482598843273e-04   4.8767016010430232e-04   1.3623254669642589e-04   2.8450730995257205e-04   0.0000000000000000e+00   7.6056475390721761e-05   0.0000000000000000e+00   0.0000000000000000e+00   0.0000000000000000e+00   0.0000000000000000e+00   0.0000000000000000e+00   0.0000000000000000e+00   0.0000000000000000e+00   0.0000000000000000e+00   0.0000000000000000e+00   0.0000000000000000e+00   0.0000000000000000e+00   0.0000000000000000e+00   0.0000000000000000e+00   0.0000000000000000e+00   0.0000000000000000e+00   0.0000000000000000e+00   0.0000000000000000e+00   0.0000000000000000e+00   0.0000000000000000e+00   0.0000000000000000e+00   0.0000000000000000e+00   0.0000000000000000e+00   0.0000000000000000e+00   0.0000000000000000e+00   0.0000000000000000e+00   0.0000000000000000e+00   0.0000000000000000e+00   0.0000000000000000e+00   0.0000000000000000e+00   0.0000000000000000e+00   0.0000000000000000e+00   0.0000000000000000e+00   0.0000000000000000e+00   0.0000000000000000e+00   0.0000000000000000e+00   0.0000000000000000e+00   0.0000000000000000e+00   0.0000000000000000e+00   0.0000000000000000e+00   0.0000000000000000e+00   0.0000000000000000e+00   0.0000000000000000e+00   0.0000000000000000e+00   0.0000000000000000e+00   0.0000000000000000e+00   0.0000000000000000e+00   0.0000000000000000e+00   0.0000000000000000e+00   0.0000000000000000e+00   0.0000000000000000e+00   0.0000000000000000e+00   0.0000000000000000e+00   0.0000000000000000e+00   0.0000000000000000e+00   0.0000000000000000e+00   0.0000000000000000e+00   0.0000000000000000e+00   0.0000000000000000e+00   0.0000000000000000e+00   0.0000000000000000e+00   0.0000000000000000e+00   0.0000000000000000e+00   0.0000000000000000e+00   0.0000000000000000e+00   0.0000000000000000e+00   0.0000000000000000e+00   0.0000000000000000e+00   0.0000000000000000e+00   0.0000000000000000e+00   0.0000000000000000e+00   0.0000000000000000e+00   0.0000000000000000e+00   0.0000000000000000e+00   0.0000000000000000e+00   0.0000000000000000e+00   0.0000000000000000e+00   0.0000000000000000e+00   0.0000000000000000e+00   0.0000000000000000e+00   0.0000000000000000e+00   0.0000000000000000e+00   0.0000000000000000e+00   0.0000000000000000e+00   0.0000000000000000e+00   0.0000000000000000e+00   0.0000000000000000e+00   0.0000000000000000e+00   0.0000000000000000e+00   0.0000000000000000e+00   0.0000000000000000e+00   0.0000000000000000e+00   0.0000000000000000e+00   0.0000000000000000e+00   0.0000000000000000e+00   0.0000000000000000e+00   0.0000000000000000e+00   0.0000000000000000e+00   0.0000000000000000e+00   0.0000000000000000e+00   0.0000000000000000e+00   0.0000000000000000e+00   0.0000000000000000e+00   0.0000000000000000e+00   0.0000000000000000e+00   0.0000000000000000e+00   0.0000000000000000e+00   0.0000000000000000e+00   0.0000000000000000e+00   0.0000000000000000e+00   0.0000000000000000e+00   0.0000000000000000e+00   0.0000000000000000e+00   0.0000000000000000e+00   0.0000000000000000e+00   0.0000000000000000e+00   0.0000000000000000e+00   0.0000000000000000e+00   0.0000000000000000e+00   0.0000000000000000e+00   0.0000000000000000e+00   0.0000000000000000e+00   0.0000000000000000e+00   0.0000000000000000e+00   0.0000000000000000e+00   0.0000000000000000e+00   0.0000000000000000e+00   0.0000000000000000e+00   0.0000000000000000e+00   9.2369662178694340e-06   4.2543750910915522e-06   4.6467202205458561e-05   3.9339775345188963e-05   1.0889780518952095e-04   1.0887417980369426e-04   1.9291145083270706e-04   2.0783116897912706e-04   2.9580064760630174e-04   3.3244405109824883e-04   4.1538846673543810e-04   4.7971117734316068e-04   5.4982607005352158e-04   6.4711115196532196e-04   6.9747957783548192e-04   8.3243766771517059e-04   8.5686278817371727e-04   1.0336999259946246e-03   1.0265947632804560e-03   1.2490597880991307e-03   1.2053717904370535e-03   1.4767903972160465e-03   1.3919481676153620e-03   1.7152479734643617e-03   1.5851226991115777e-03   1.9628520789919542e-03   1.7837290548703014e-03   2.2180715656465590e-03   1.9866288450555614e-03   2.4794144803971644e-03   2.1927066651230222e-03   2.7454208183314783e-03   2.4008666108041241e-03   3.0146573830157905e-03   2.6100299155681498e-03   3.2857142449327866e-03   2.8191334635007661e-03   3.5572024376946060e-03   3.0271289952765140e-03   3.8277526304509096e-03   3.2329828733957014e-03   4.0960145819266131e-03   3.4356763024152759e-03   4.3606572301844396e-03   3.6342059242203393e-03   4.6203693029218994e-03   3.8275847248098803e-03   4.8738603597507637e-03   4.0148432015069332e-03   5.1198621946714658e-03   4.1950307488779629e-03   5.3571305406346272e-03   4.3672172287908409e-03   5.5844470282651526e-03   4.5304946955600812e-03   5.8006213586660835e-03   4.6839792514231206e-03   6.0044936563123088e-03   4.8268130109923712e-03   6.1949369728345246e-03   4.9581661560014799e-03   6.3708599162841280e-03   5.0772390637953708e-03   6.5312093834647917e-03   5.1832644947258071e-03   6.6749733753185608e-03   5.2755098249524139e-03   6.8011838772645966e-03   5.3532793122158520e-03   6.9089197878842356e-03   5.4159163829774620e-03   6.9973098805274645e-03   5.4628059299516724e-03   7.0655357833276844e-03   5.4933766094919156e-03   7.1128349637595862e-03   5.5071031286098903e-03   7.1385037043395884e-03   5.5035085115703051e-03   7.1419000563512011e-03   5.4821663360597036e-03   7.1224467585946239e-03   5.4427029288650862e-03   7.0796341081383364e-03   5.3847995108538549e-03   7.0130227698810685e-03   5.3081942808372272e-03   6.9222465115095361e-03   5.2126844275187760e-03   6.8070148500096114e-03   5.0981280584092197e-03   6.6671155954271984e-03   4.9644460341364809e-03   6.5024172770772682e-03   4.8116236960328729e-03   6.3128714367035720e-03   4.6397124744069936e-03   6.0985147724433994e-03   4.4488313642984494e-03   5.8594711167031504e-03   4.2391682547993081e-03   5.5959532302705100e-03   4.0109810975618590e-03   5.3082643940395736e-03   3.7645988993996152e-03   4.9967997792054264e-03   3.5004225231397780e-03   4.6620475755635203e-03   3.2189252803589549e-03   4.3045898569328087e-03   2.9206532989367660e-03   3.9251031618102606e-03   2.6062256477163369e-03   3.5243587665308362e-03   2.2763341999773963e-03   3.1032226274039843e-03   1.9317432168307327e-03   2.6626549675456555e-03   1.5732886310627339e-03   2.2037094833627308e-03   1.2018770113888892e-03   1.7275321449074809e-03   8.1848418649112307e-04   1.2353595635871493e-03   4.2415350756814894e-04   7.2851689993114091e-04   1.9993727354152446e-05   2.0841528322723563e-04   0.0000000000000000e+00   0.0000000000000000e+00   0.0000000000000000e+00   0.0000000000000000e+00   0.0000000000000000e+00   0.0000000000000000e+00   0.0000000000000000e+00   0.0000000000000000e+00   0.0000000000000000e+00   0.0000000000000000e+00   0.0000000000000000e+00   0.0000000000000000e+00   0.0000000000000000e+00   0.0000000000000000e+00   0.0000000000000000e+00   0.0000000000000000e+00   0.0000000000000000e+00   0.0000000000000000e+00   0.0000000000000000e+00   0.0000000000000000e+00   0.0000000000000000e+00   0.0000000000000000e+00   0.0000000000000000e+00   0.0000000000000000e+00   0.0000000000000000e+00   0.0000000000000000e+00   0.0000000000000000e+00   0.0000000000000000e+00   0.0000000000000000e+00   0.0000000000000000e+00   0.0000000000000000e+00   0.0000000000000000e+00   0.0000000000000000e+00   0.0000000000000000e+00   0.0000000000000000e+00   0.0000000000000000e+00   0.0000000000000000e+00   0.0000000000000000e+00   0.0000000000000000e+00   0.0000000000000000e+00   0.0000000000000000e+00   0.0000000000000000e+00   0.0000000000000000e+00   0.0000000000000000e+00   0.0000000000000000e+00   0.0000000000000000e+00   0.0000000000000000e+00   0.0000000000000000e+00   0.0000000000000000e+00   0.0000000000000000e+00   0.0000000000000000e+00   0.0000000000000000e+00   0.0000000000000000e+00   0.0000000000000000e+00   0.0000000000000000e+00   0.0000000000000000e+00   0.0000000000000000e+00   0.0000000000000000e+00   0.0000000000000000e+00   0.0000000000000000e+00   0.0000000000000000e+00   0.0000000000000000e+00   0.0000000000000000e+00   0.0000000000000000e+00   0.0000000000000000e+00   0.0000000000000000e+00   0.0000000000000000e+00   0.0000000000000000e+00   0.0000000000000000e+00   0.0000000000000000e+00   0.0000000000000000e+00   0.0000000000000000e+00   0.0000000000000000e+00   0.0000000000000000e+00   0.0000000000000000e+00   0.0000000000000000e+00   0.0000000000000000e+00   0.0000000000000000e+00   0.0000000000000000e+00   0.0000000000000000e+00   0.0000000000000000e+00   0.0000000000000000e+00   0.0000000000000000e+00   0.0000000000000000e+00   0.0000000000000000e+00   0.0000000000000000e+00   0.0000000000000000e+00   0.0000000000000000e+00   0.0000000000000000e+00   0.0000000000000000e+00   0.0000000000000000e+00   0.0000000000000000e+00   0.0000000000000000e+00   0.0000000000000000e+00   0.0000000000000000e+00   0.0000000000000000e+00   0.0000000000000000e+00   0.0000000000000000e+00   0.0000000000000000e+00   0.0000000000000000e+00   0.0000000000000000e+00   0.0000000000000000e+00   0.0000000000000000e+00   0.0000000000000000e+00   0.0000000000000000e+00   0.0000000000000000e+00   0.0000000000000000e+00   0.0000000000000000e+00   0.0000000000000000e+00   0.0000000000000000e+00   0.0000000000000000e+00   0.0000000000000000e+00   0.0000000000000000e+00   0.0000000000000000e+00   0.0000000000000000e+00   0.0000000000000000e+00   0.0000000000000000e+00   0.0000000000000000e+00   0.0000000000000000e+00   0.0000000000000000e+00   0.0000000000000000e+00   0.0000000000000000e+00   0.0000000000000000e+00   0.0000000000000000e+00   0.0000000000000000e+00   0.0000000000000000e+00   0.0000000000000000e+00   0.0000000000000000e+00   1.6850709610739767e-05   7.0985646662864179e-06   8.7327525008312024e-05   6.8545411754430941e-05   2.0770784626353208e-04   1.9269586630073687e-04   3.7143200294425833e-04   3.7131820684820104e-04   5.7330230804756330e-04   5.9784610495028313e-04   8.0902140735342155e-04   8.6685980101802187e-04   1.0748930202452384e-03   1.1737228944719410e-03   1.3676323716768017e-03   1.5143413841341965e-03   1.6842444501743749e-03   1.8850047825322781e-03   2.0219436947624871e-03   2.2822798569208662e-03   2.3780994727292258e-03   2.7029380504585586e-03   2.7501981260310377e-03   3.1439048464666189e-03   3.1358160397629282e-03   3.6022238097900240e-03   3.5326002971342073e-03   4.0750307332854691e-03   3.9382547232