<?xml version="1.0"?>
<VTKFile type="UnstructuredGrid"  version="0.1"  >
<UnstructuredGrid>
<Piece  NumberOfPoints="21025" NumberOfCells="41472">
<Points>
<DataArray  type="Float64"  NumberOfComponents="3"  format="ascii">0 0 0  0.006944444444444444 0 0  0.01388888888888889 0 0  0.02083333333333333 0 0  0.02777777777777778 0 0  0.03472222222222222 0 0  0.04166666666666666 0 0  0.04861111111111111 0 0  0.05555555555555555 0 0  0.0625 0 0  0.06944444444444445 0 0  0.0763888888888889 0 0  0.08333333333333333 0 0  0.09027777777777778 0 0  0.09722222222222222 0 0  0.1041666666666667 0 0  0.1111111111111111 0 0  0.1180555555555556 0 0  0.125 0 0  0.1319444444444444 0 0  0.1388888888888889 0 0  0.1458333333333333 0 0  0.1527777777777778 0 0  0.1597222222222222 0 0  0.1666666666666667 0 0  0.1736111111111111 0 0  0.1805555555555556 0 0  0.1875 0 0  0.1944444444444444 0 0  0.2013888888888889 0 0  0.2083333333333333 0 0  0.2152777777777778 0 0  0.2222222222222222 0 0  0.2291666666666667 0 0  0.2361111111111111 0 0  0.2430555555555556 0 0  0.25 0 0  0.2569444444444444 0 0  0.2638888888888889 0 0  0.2708333333333333 0 0  0.2777777777777778 0 0  0.2847222222222222 0 0  0.2916666666666667 0 0  0.2986111111111111 0 0  0.3055555555555556 0 0  0.3125 0 0  0.3194444444444444 0 0  0.3263888888888889 0 0  0.3333333333333333 0 0  0.3402777777777778 0 0  0.3472222222222222 0 0  0.3541666666666667 0 0  0.3611111111111111 0 0  0.3680555555555556 0 0  0.375 0 0  0.3819444444444444 0 0  0.3888888888888889 0 0  0.3958333333333333 0 0  0.4027777777777778 0 0  0.4097222222222222 0 0  0.4166666666666667 0 0  0.4236111111111111 0 0  0.4305555555555556 0 0  0.4375 0 0  0.4444444444444444 0 0  0.4513888888888889 0 0  0.4583333333333333 0 0  0.4652777777777778 0 0  0.4722222222222222 0 0  0.4791666666666667 0 0  0.4861111111111111 0 0  0.4930555555555556 0 0  0.5 0 0  0.5069444444444444 0 0  0.5138888888888888 0 0  0.5208333333333334 0 0  0.5277777777777778 0 0  0.5347222222222222 0 0  0.5416666666666666 0 0  0.5486111111111112 0 0  0.5555555555555556 0 0  0.5625 0 0  0.5694444444444444 0 0  0.5763888888888888 0 0  0.5833333333333334 0 0  0.5902777777777778 0 0  0.5972222222222222 0 0  0.6041666666666666 0 0  0.6111111111111112 0 0  0.6180555555555556 0 0  0.625 0 0  0.6319444444444444 0 0  0.6388888888888888 0 0  0.6458333333333334 0 0  0.6527777777777778 0 0  0.6597222222222222 0 0  0.6666666666666666 0 0  0.6736111111111112 0 0  0.6805555555555556 0 0  0.6875 0 0  0.6944444444444444 0 0  0.7013888888888888 0 0  0.7083333333333334 0 0  0.7152777777777778 0 0  0.7222222222222222 0 0  0.7291666666666666 0 0  0.7361111111111112 0 0  0.7430555555555556 0 0  0.75 0 0  0.7569444444444444 0 0  0.7638888888888888 0 0  0.7708333333333334 0 0  0.7777777777777778 0 0  0.7847222222222222 0 0  0.7916666666666666 0 0  0.7986111111111112 0 0  0.8055555555555556 0 0  0.8125 0 0  0.8194444444444444 0 0  0.8263888888888888 0 0  0.8333333333333334 0 0  0.8402777777777778 0 0  0.8472222222222222 0 0  0.8541666666666666 0 0  0.8611111111111112 0 0  0.8680555555555556 0 0  0.875 0 0  0.8819444444444444 0 0  0.8888888888888888 0 0  0.8958333333333334 0 0  0.9027777777777778 0 0  0.9097222222222222 0 0  0.9166666666666666 0 0  0.9236111111111112 0 0  0.9305555555555556 0 0  0.9375 0 0  0.9444444444444444 0 0  0.9513888888888888 0 0  0.9583333333333334 0 0  0.9652777777777778 0 0  0.9722222222222222 0 0  0.9791666666666666 0 0  0.9861111111111112 0 0  0.9930555555555556 0 0  1 0 0  0 0.006944444444444444 0  0.006944444444444444 0.006944444444444444 0  0.01388888888888889 0.006944444444444444 0  0.02083333333333333 0.006944444444444444 0  0.02777777777777778 0.006944444444444444 0  0.03472222222222222 0.006944444444444444 0  0.04166666666666666 0.006944444444444444 0  0.04861111111111111 0.006944444444444444 0  0.05555555555555555 0.006944444444444444 0  0.0625 0.006944444444444444 0  0.06944444444444445 0.006944444444444444 0  0.0763888888888889 0.006944444444444444 0  0.08333333333333333 0.006944444444444444 0  0.09027777777777778 0.006944444444444444 0  0.09722222222222222 0.006944444444444444 0  0.1041666666666667 0.006944444444444444 0  0.1111111111111111 0.006944444444444444 0  0.1180555555555556 0.006944444444444444 0  0.125 0.006944444444444444 0  0.1319444444444444 0.006944444444444444 0  0.1388888888888889 0.006944444444444444 0  0.1458333333333333 0.006944444444444444 0  0.1527777777777778 0.006944444444444444 0  0.1597222222222222 0.006944444444444444 0  0.1666666666666667 0.006944444444444444 0  0.1736111111111111 0.006944444444444444 0  0.1805555555555556 0.006944444444444444 0  0.1875 0.006944444444444444 0  0.1944444444444444 0.006944444444444444 0  0.2013888888888889 0.006944444444444444 0  0.2083333333333333 0.006944444444444444 0  0.2152777777777778 0.006944444444444444 0  0.2222222222222222 0.006944444444444444 0  0.2291666666666667 0.006944444444444444 0  0.2361111111111111 0.006944444444444444 0  0.2430555555555556 0.006944444444444444 0  0.25 0.006944444444444444 0  0.2569444444444444 0.006944444444444444 0  0.2638888888888889 0.006944444444444444 0  0.2708333333333333 0.006944444444444444 0  0.2777777777777778 0.006944444444444444 0  0.2847222222222222 0.006944444444444444 0  0.2916666666666667 0.006944444444444444 0  0.2986111111111111 0.006944444444444444 0  0.3055555555555556 0.006944444444444444 0  0.3125 0.006944444444444444 0  0.3194444444444444 0.006944444444444444 0  0.3263888888888889 0.006944444444444444 0  0.3333333333333333 0.006944444444444444 0  0.3402777777777778 0.006944444444444444 0  0.3472222222222222 0.006944444444444444 0  0.3541666666666667 0.006944444444444444 0  0.3611111111111111 0.006944444444444444 0  0.3680555555555556 0.006944444444444444 0  0.375 0.006944444444444444 0  0.3819444444444444 0.006944444444444444 0  0.3888888888888889 0.006944444444444444 0  0.3958333333333333 0.006944444444444444 0  0.4027777777777778 0.006944444444444444 0  0.4097222222222222 0.006944444444444444 0  0.4166666666666667 0.006944444444444444 0  0.4236111111111111 0.006944444444444444 0  0.4305555555555556 0.006944444444444444 0  0.4375 0.006944444444444444 0  0.4444444444444444 0.006944444444444444 0  0.4513888888888889 0.006944444444444444 0  0.4583333333333333 0.006944444444444444 0  0.4652777777777778 0.006944444444444444 0  0.4722222222222222 0.006944444444444444 0  0.4791666666666667 0.006944444444444444 0  0.4861111111111111 0.006944444444444444 0  0.4930555555555556 0.006944444444444444 0  0.5 0.006944444444444444 0  0.5069444444444444 0.006944444444444444 0  0.5138888888888888 0.006944444444444444 0  0.5208333333333334 0.006944444444444444 0  0.5277777777777778 0.006944444444444444 0  0.5347222222222222 0.006944444444444444 0  0.5416666666666666 0.006944444444444444 0  0.5486111111111112 0.006944444444444444 0  0.5555555555555556 0.006944444444444444 0  0.5625 0.006944444444444444 0  0.5694444444444444 0.006944444444444444 0  0.5763888888888888 0.006944444444444444 0  0.5833333333333334 0.006944444444444444 0  0.5902777777777778 0.006944444444444444 0  0.5972222222222222 0.006944444444444444 0  0.6041666666666666 0.006944444444444444 0  0.6111111111111112 0.006944444444444444 0  0.6180555555555556 0.006944444444444444 0  0.625 0.006944444444444444 0  0.6319444444444444 0.006944444444444444 0  0.6388888888888888 0.006944444444444444 0  0.6458333333333334 0.006944444444444444 0  0.6527777777777778 0.006944444444444444 0  0.6597222222222222 0.006944444444444444 0  0.6666666666666666 0.006944444444444444 0  0.6736111111111112 0.006944444444444444 0  0.6805555555555556 0.006944444444444444 0  0.6875 0.006944444444444444 0  0.6944444444444444 0.006944444444444444 0  0.7013888888888888 0.006944444444444444 0  0.7083333333333334 0.006944444444444444 0  0.7152777777777778 0.006944444444444444 0  0.7222222222222222 0.006944444444444444 0  0.7291666666666666 0.006944444444444444 0  0.7361111111111112 0.006944444444444444 0  0.7430555555555556 0.006944444444444444 0  0.75 0.006944444444444444 0  0.7569444444444444 0.006944444444444444 0  0.7638888888888888 0.006944444444444444 0  0.7708333333333334 0.006944444444444444 0  0.7777777777777778 0.006944444444444444 0  0.7847222222222222 0.006944444444444444 0  0.7916666666666666 0.006944444444444444 0  0.7986111111111112 0.006944444444444444 0  0.8055555555555556 0.006944444444444444 0  0.8125 0.006944444444444444 0  0.8194444444444444 0.006944444444444444 0  0.8263888888888888 0.006944444444444444 0  0.8333333333333334 0.006944444444444444 0  0.8402777777777778 0.006944444444444444 0  0.8472222222222222 0.006944444444444444 0  0.8541666666666666 0.006944444444444444 0  0.8611111111111112 0.006944444444444444 0  0.8680555555555556 0.006944444444444444 0  0.875 0.006944444444444444 0  0.8819444444444444 0.006944444444444444 0  0.8888888888888888 0.006944444444444444 0  0.8958333333333334 0.006944444444444444 0  0.9027777777777778 0.006944444444444444 0  0.9097222222222222 0.006944444444444444 0  0.9166666666666666 0.006944444444444444 0  0.9236111111111112 0.006944444444444444 0  0.9305555555555556 0.006944444444444444 0  0.9375 0.006944444444444444 0  0.9444444444444444 0.006944444444444444 0  0.9513888888888888 0.006944444444444444 0  0.9583333333333334 0.006944444444444444 0  0.9652777777777778 0.006944444444444444 0  0.9722222222222222 0.006944444444444444 0  0.9791666666666666 0.006944444444444444 0  0.9861111111111112 0.006944444444444444 0  0.9930555555555556 0.006944444444444444 0  1 0.006944444444444444 0  0 0.01388888888888889 0  0.006944444444444444 0.01388888888888889 0  0.01388888888888889 0.01388888888888889 0  0.02083333333333333 0.01388888888888889 0  0.02777777777777778 0.01388888888888889 0  0.03472222222222222 0.01388888888888889 0  0.04166666666666666 0.01388888888888889 0  0.04861111111111111 0.01388888888888889 0  0.05555555555555555 0.01388888888888889 0  0.0625 0.01388888888888889 0  0.06944444444444445 0.01388888888888889 0  0.0763888888888889 0.01388888888888889 0  0.
[...]
<CellData  Scalars="f_25"> 
<DataArray  type="Float64"  Name="f_25"  format="ascii">0.0000000000000000e+00   0.0000000000000000e+00   0.0000000000000000e+00   0.0000000000000000e+00   0.0000000000000000e+00   0.0000000000000000e+00   0.0000000000000000e+00   0.0000000000000000e+00   0.0000000000000000e+00   0.0000000000000000e+00   0.0000000000000000e+00   0.0000000000000000e+00   0.0000000000000000e+00   0.0000000000000000e+00   0.0000000000000000e+00   0.0000000000000000e+00   0.0000000000000000e+00   0.0000000000000000e+00   0.0000000000000000e+00   0.0000000000000000e+00   0.0000000000000000e+00   0.0000000000000000e+00   0.0000000000000000e+00   0.0000000000000000e+00   0.0000000000000000e+00   0.0000000000000000e+00   0.0000000000000000e+00   0.0000000000000000e+00   0.0000000000000000e+00   0.0000000000000000e+00   0.0000000000000000e+00   0.0000000000000000e+00   0.0000000000000000e+00   0.0000000000000000e+00   0.0000000000000000e+00   0.0000000000000000e+00   0.0000000000000000e+00   0.0000000000000000e+00   0.0000000000000000e+00   0.0000000000000000e+00   0.0000000000000000e+00   0.0000000000000000e+00   0.0000000000000000e+00   0.0000000000000000e+00   0.0000000000000000e+00   0.0000000000000000e+00   0.0000000000000000e+00   0.0000000000000000e+00   0.0000000000000000e+00   0.0000000000000000e+00   0.0000000000000000e+00   0.0000000000000000e+00   0.0000000000000000e+00   0.0000000000000000e+00   0.0000000000000000e+00   0.0000000000000000e+00   0.0000000000000000e+00   0.0000000000000000e+00   0.0000000000000000e+00   0.0000000000000000e+00   0.0000000000000000e+00   0.0000000000000000e+00   0.0000000000000000e+00   0.0000000000000000e+00   0.0000000000000000e+00   0.0000000000000000e+00   0.0000000000000000e+00   0.0000000000000000e+00   0.0000000000000000e+00   0.0000000000000000e+00   0.0000000000000000e+00   0.0000000000000000e+00   0.0000000000000000e+00   0.0000000000000000e+00   0.0000000000000000e+00   0.0000000000000000e+00   0.0000000000000000e+00   0.0000000000000000e+00   0.0000000000000000e+00   0.0000000000000000e+00   0.0000000000000000e+00   0.0000000000000000e+00   0.0000000000000000e+00   0.0000000000000000e+00   0.0000000000000000e+00   0.0000000000000000e+00   0.0000000000000000e+00   0.0000000000000000e+00   0.0000000000000000e+00   0.0000000000000000e+00   0.0000000000000000e+00   0.0000000000000000e+00   0.0000000000000000e+00   0.0000000000000000e+00   0.0000000000000000e+00   0.0000000000000000e+00   0.0000000000000000e+00   0.0000000000000000e+00   0.0000000000000000e+00   0.0000000000000000e+00   0.0000000000000000e+00   0.0000000000000000e+00   0.0000000000000000e+00   0.0000000000000000e+00   0.0000000000000000e+00   0.0000000000000000e+00   0.0000000000000000e+00   0.0000000000000000e+00   0.0000000000000000e+00   0.0000000000000000e+00   0.0000000000000000e+00   0.0000000000000000e+00   0.0000000000000000e+00   0.0000000000000000e+00   0.0000000000000000e+00   0.0000000000000000e+00   0.0000000000000000e+00   0.0000000000000000e+00   0.0000000000000000e+00   0.0000000000000000e+00   0.0000000000000000e+00   0.0000000000000000e+00   0.0000000000000000e+00   0.0000000000000000e+00   0.0000000000000000e+00   0.0000000000000000e+00   0.0000000000000000e+00   0.0000000000000000e+00   0.0000000000000000e+00   0.0000000000000000e+00   0.0000000000000000e+00   0.0000000000000000e+00   0.0000000000000000e+00   0.0000000000000000e+00   0.0000000000000000e+00   0.0000000000000000e+00   0.0000000000000000e+00   0.0000000000000000e+00   0.0000000000000000e+00   0.0000000000000000e+00   0.0000000000000000e+00   0.0000000000000000e+00   0.0000000000000000e+00   0.0000000000000000e+00   0.0000000000000000e+00   0.0000000000000000e+00   0.0000000000000000e+00   0.0000000000000000e+00   0.0000000000000000e+00   0.0000000000000000e+00   0.0000000000000000e+00   0.0000000000000000e+00   0.0000000000000000e+00   0.0000000000000000e+00   0.0000000000000000e+00   0.0000000000000000e+00   0.0000000000000000e+00   0.0000000000000000e+00   0.0000000000000000e+00   0.0000000000000000e+00   0.0000000000000000e+00   0.0000000000000000e+00   0.0000000000000000e+00   0.0000000000000000e+00   0.0000000000000000e+00   0.0000000000000000e+00   0.0000000000000000e+00   0.0000000000000000e+00   0.0000000000000000e+00   0.0000000000000000e+00   0.0000000000000000e+00   0.0000000000000000e+00   0.0000000000000000e+00   0.0000000000000000e+00   0.0000000000000000e+00   0.0000000000000000e+00   0.0000000000000000e+00   0.0000000000000000e+00   0.0000000000000000e+00   0.0000000000000000e+00   0.0000000000000000e+00   0.0000000000000000e+00   0.0000000000000000e+00   0.0000000000000000e+00   0.0000000000000000e+00   0.0000000000000000e+00   0.0000000000000000e+00   0.0000000000000000e+00   0.0000000000000000e+00   0.0000000000000000e+00   0.0000000000000000e+00   0.0000000000000000e+00   0.0000000000000000e+00   0.0000000000000000e+00   0.0000000000000000e+00   0.0000000000000000e+00   0.0000000000000000e+00   0.0000000000000000e+00   0.0000000000000000e+00   0.0000000000000000e+00   0.0000000000000000e+00   0.0000000000000000e+00   0.0000000000000000e+00   0.0000000000000000e+00   0.0000000000000000e+00   0.0000000000000000e+00   0.0000000000000000e+00   0.0000000000000000e+00   0.0000000000000000e+00   0.0000000000000000e+00   0.0000000000000000e+00   0.0000000000000000e+00   0.0000000000000000e+00   0.0000000000000000e+00   0.0000000000000000e+00   0.0000000000000000e+00   0.0000000000000000e+00   0.0000000000000000e+00   0.0000000000000000e+00   0.0000000000000000e+00   0.0000000000000000e+00   0.0000000000000000e+00   0.0000000000000000e+00   0.0000000000000000e+00   0.0000000000000000e+00   0.0000000000000000e+00   0.0000000000000000e+00   0.0000000000000000e+00   0.0000000000000000e+00   0.0000000000000000e+00   0.0000000000000000e+00   0.0000000000000000e+00   0.0000000000000000e+00   0.0000000000000000e+00   0.0000000000000000e+00   0.0000000000000000e+00   0.0000000000000000e+00   0.0000000000000000e+00   0.0000000000000000e+00   0.0000000000000000e+00   0.0000000000000000e+00   0.0000000000000000e+00   0.0000000000000000e+00   0.0000000000000000e+00   0.0000000000000000e+00   0.0000000000000000e+00   0.0000000000000000e+00   0.0000000000000000e+00   0.0000000000000000e+00   0.0000000000000000e+00   0.0000000000000000e+00   0.0000000000000000e+00   0.0000000000000000e+00   0.0000000000000000e+00   0.0000000000000000e+00   0.0000000000000000e+00   0.0000000000000000e+00   0.0000000000000000e+00   0.0000000000000000e+00   0.0000000000000000e+00   0.0000000000000000e+00   0.0000000000000000e+00   0.0000000000000000e+00   0.0000000000000000e+00   0.0000000000000000e+00   0.0000000000000000e+00   0.0000000000000000e+00   0.0000000000000000e+00   0.0000000000000000e+00   0.0000000000000000e+00   0.0000000000000000e+00   0.0000000000000000e+00   0.0000000000000000e+00   0.0000000000000000e+00   0.0000000000000000e+00   0.0000000000000000e+00   0.0000000000000000e+00   0.0000000000000000e+00   0.0000000000000000e+00   0.0000000000000000e+00   0.0000000000000000e+00   0.0000000000000000e+00   0.0000000000000000e+00   0.0000000000000000e+00   0.0000000000000000e+00   0.0000000000000000e+00   0.0000000000000000e+00   0.0000000000000000e+00   0.0000000000000000e+00   0.0000000000000000e+00   0.0000000000000000e+00   0.0000000000000000e+00   0.0000000000000000e+00   0.0000000000000000e+00   0.0000000000000000e+00   0.0000000000000000e+00   0.0000000000000000e+00   0.0000000000000000e+00   0.0000000000000000e+00   0.0000000000000000e+00   0.0000000000000000e+00   0.0000000000000000e+00   0.0000000000000000e+00   0.0000000000000000e+00   0.0000000000000000e+00   0.0000000000000000e+00   0.0000000000000000e+00   0.0000000000000000e+00   0.0000000000000000e+00   0.0000000000000000e+00   0.0000000000000000e+00   0.0000000000000000e+00   0.0000000000000000e+00   0.0000000000000000e+00   0.0000000000000000e+00   0.0000000000000000e+00   0.0000000000000000e+00   0.0000000000000000e+00   0.0000000000000000e+00   0.0000000000000000e+00   0.0000000000000000e+00   0.0000000000000000e+00   0.0000000000000000e+00   0.0000000000000000e+00   0.0000000000000000e+00   0.0000000000000000e+00   0.0000000000000000e+00   0.0000000000000000e+00   0.0000000000000000e+00   0.0000000000000000e+00   0.0000000000000000e+00   0.0000000000000000e+00   0.0000000000000000e+00   0.0000000000000000e+00   0.0000000000000000e+00   0.0000000000000000e+00   0.0000000000000000e+00   0.0000000000000000e+00   0.0000000000000000e+00   0.0000000000000000e+00   0.0000000000000000e+00   0.0000000000000000e+00   0.0000000000000000e+00   0.0000000000000000e+00   0.0000000000000000e+00   0.0000000000000000e+00   0.0000000000000000e+00   0.0000000000000000e+00   0.0000000000000000e+00   0.0000000000000000e+00   0.0000000000000000e+00   0.0000000000000000e+00   0.0000000000000000e+00   0.0000000000000000e+00   0.0000000000000000e+00   0.0000000000000000e+00   0.0000000000000000e+00   0.0000000000000000e+00   0.0000000000000000e+00   0.0000000000000000e+00   0.0000000000000000e+00   0.0000000000000000e+00   0.0000000000000000e+00   0.0000000000000000e+00   0.0000000000000000e+00   0.0000000000000000e+00   0.0000000000000000e+00   0.0000000000000000e+00   0.0000000000000000e+00   0.0000000000000000e+00   0.0000000000000000e+00   0.0000000000000000e+00   0.0000000000000000e+00   0.0000000000000000e+00   0.0000000000000000e+00   0.0000000000000000e+00   0.0000000000000000e+00   0.0000000000000000e+00   0.0000000000000000e+00   0.0000000000000000e+00   0.0000000000000000e+00   0.0000000000000000e+00   0.0000000000000000e+00   0.0000000000000000e+00   0.0000000000000000e+00   0.0000000000000000e+00   0.0000000000000000e+00   0.0000000000000000e+00   0.0000000000000000e+00   0.0000000000000000e+00   0.0000000000000000e+00   0.0000000000000000e+00   0.0000000000000000e+00   0.0000000000000000e+00   0.0000000000000000e+00   0.0000000000000000e+00   0.0000000000000000e+00   0.0000000000000000e+00   0.0000000000000000e+00   0.0000000000000000e+00   0.0000000000000000e+00   0.0000000000000000e+00   0.0000000000000000e+00   0.0000000000000000e+00   0.0000000000000000e+00   0.0000000000000000e+00   0.0000000000000000e+00   0.0000000000000000e+00   0.0000000000000000e+00   0.0000000000000000e+00   0.0000000000000000e+00   0.0000000000000000e+00   0.0000000000000000e+00   0.0000000000000000e+00   0.0000000000000000e+00   0.0000000000000000e+00   0.0000000000000000e+00   0.0000000000000000e+00   0.0000000000000000e+00   0.0000000000000000e+00   0.0000000000000000e+00   0.0000000000000000e+00   0.0000000000000000e+00   0.0000000000000000e+00   0.0000000000000000e+00   0.0000000000000000e+00   0.0000000000000000e+00   0.0000000000000000e+00   0.0000000000000000e+00   0.0000000000000000e+00   0.0000000000000000e+00   0.0000000000000000e+00   0.0000000000000000e+00   0.0000000000000000e+00   0.0000000000000000e+00   0.0000000000000000e+00   0.0000000000000000e+00   0.0000000000000000e+00   0.0000000000000000e+00   0.0000000000000000e+00   0.0000000000000000e+00   0.0000000000000000e+00   0.0000000000000000e+00   0.0000000000000000e+00   0.0000000000000000e+00   0.0000000000000000e+00   0.0000000000000000e+00   0.0000000000000000e+00   0.0000000000000000e+00   0.0000000000000000e+00   0.0000000000000000e+00   0.0000000000000000e+00   0.0000000000000000e+00   0.0000000000000000e+00   0.0000000000000000e+00   0.0000000000000000e+00   0.0000000000000000e+00   0.0000000000000000e+00   0.0000000000000000e+00   0.0000000000000000e+00   0.0000000000000000e+00   0.0000000000000000e+00   0.0000000000000000e+00   0.0000000000000000e+00   0.0000000000000000e+00   0.0000000000000000e+00   0.0000000000000000e+00   0.0000000000000000e+00   0.0000000000000000e+00   0.0000000000000000e+00   0.0000000000000000e+00   0.0000000000000000e+00   0.0000000000000000e+00   0.0000000000000000e+00   0.0000000000000000e+00   0.0000000000000000e+00   0.0000000000000000e+00   0.0000000000000000e+00   0.0000000000000000e+00   0.0000000000000000e+00   0.0000000000000000e+00   0.0000000000000000e+00   0.0000000000000000e+00   0.0000000000000000e+00   0.0000000000000000e+00   0.0000000000000000e+00   0.0000000000000000e+00   0.0000000000000000e+00   0.0000000000000000e+00   0.0000000000000000e+00   0.0000000000000000e+00   0.0000000000000000e+00   0.0000000000000000e+00   0.0000000000000000e+00   0.0000000000000000e+00   0.0000000000000000e+00   0.0000000000000000e+00   0.0000000000000000e+00   0.0000000000000000e+00   0.0000000000000000e+00   0.0000000000000000e+00   0.0000000000000000e+00   0.0000000000000000e+00   0.0000000000000000e+00   0.0000000000000000e+00   0.0000000000000000e+00   0.0000000000000000e+00   0.0000000000000000e+00   0.0000000000000000e+00   0.0000000000000000e+00   0.0000000000000000e+00   0.0000000000000000e+00   0.0000000000000000e+00   0.0000000000000000e+00   0.0000000000000000e+00   0.0000000000000000e+00   0.0000000000000000e+00   0.0000000000000000e+00   0.0000000000000000e+00   0.0000000000000000e+00   0.0000000000000000e+00   0.0000000000000000e+00   0.0000000000000000e+00   0.0000000000000000e+00   0.0000000000000000e+00   0.0000000000000000e+00   0.0000000000000000e+00   0.0000000000000000e+00   0.0000000000000000e+00   0.0000000000000000e+00   0.0000000000000000e+00   0.0000000000000000e+00   0.0000000000000000e+00   0.0000000000000000e+00   0.0000000000000000e+00   0.0000000000000000e+00   0.0000000000000000e+00   0.0000000000000000e+00   0.0000000000000000e+00   0.0000000000000000e+00   0.0000000000000000e+00   0.0000000000000000e+00   0.0000000000000000e+00   0.0000000000000000e+00   0.0000000000000000e+00   0.0000000000000000e+00   0.0000000000000000e+00   0.0000000000000000e+00   0.0000000000000000e+00   0.0000000000000000e+00   0.0000000000000000e+00   0.0000000000000000e+00   0.0000000000000000e+00   0.0000000000000000e+00   0.0000000000000000e+00   0.0000000000000000e+00   0.0000000000000000e+00   0.0000000000000000e+00   0.0000000000000000e+00   0.0000000000000000e+00   0.0000000000000000e+00   0.0000000000000000e+00   0.0000000000000000e+00   0.0000000000000000e+00   0.0000000000000000e+00   0.0000000000000000e+00   0.0000000000000000e+00   0.0000000000000000e+00   0.0000000000000000e+00   0.0000000000000000e+00   0.0000000000000000e+00   0.0000000000000000e+00   0.0000000000000000e+00   0.0000000000000000e+00   0.0000000000000000e+00   0.0000000000000000e+00   0.0000000000000000e+00   0.0000000000000000e+00   0.0000000000000000e+00   0.0000000000000000e+00   0.0000000000000000e+00   0.0000000000000000e+00   0.0000000000000000e+00   0.0000000000000000e+00   0.0000000000000000e+00   0.0000000000000000e+00   0.0000000000000000e+00   0.0000000000000000e+00   0.0000000000000000e+00   0.0000000000000000e+00   0.0000000000000000e+00   0.0000000000000000e+00   0.0000000000000000e+00   0.0000000000000000e+00   0.0000000000000000e+00   0.0000000000000000e+00   0.0000000000000000e+00   0.0000000000000000e+00   0.0000000000000000e+00   0.0000000000000000e+00   0.0000000000000000e+00   0.0000000000000000e+00   0.0000000000000000e+00   0.0000000000000000e+00   0.0000000000000000e+00   0.0000000000000000e+00   0.0000000000000000e+00   0.0000000000000000e+00   0.0000000000000000e+00   0.0000000000000000e+00   0.0000000000000000e+00   0.0000000000000000e+00   0.0000000000000000e+00   0.0000000000000000e+00   0.0000000000000000e+00   0.0000000000000000e+00   0.0000000000000000e+00   0.0000000000000000e+00   0.0000000000000000e+00   0.0000000000000000e+00   0.0000000000000000e+00   0.0000000000000000e+00   0.0000000000000000e+00   0.0000000000000000e+00   0.0000000000000000e+00   0.0000000000000000e+00   0.0000000000000000e+00   0.0000000000000000e+00   0.0000000000000000e+00   0.0000000000000000e+00   0.0000000000000000e+00   0.0000000000000000e+00   0.0000000000000000e+00   0.0000000000000000e+00   0.0000000000000000e+00   0.0000000000000000e+00   0.0000000000000000e+00   0.0000000000000000e+00   0.0000000000000000e+00   0.0000000000000000e+00   0.0000000000000000e+00   0.0000000000000000e+00   0.0000000000000000e+00   0.0000000000000000e+00   0.0000000000000000e+00   0.0000000000000000e+00   0.0000000000000000e+00   0.0000000000000000e+00   0.0000000000000000e+00   0.0000000000000000e+00   0.0000000000000000e+00   0.0000000000000000e+00   0.0000000000000000e+00   0.0000000000000000e+00   0.0000000000000000e+00   0.0000000000000000e+00   0.0000000000000000e+00   0.0000000000000000e+00   0.0000000000000000e+00   0.0000000000000000e+00   0.0000000000000000e+00   0.0000000000000000e+00   0.0000000000000000e+00   0.0000000000000000e+00   0.0000000000000000e+00   0.0000000000000000e+00   0.0000000000000000e+00   0.0000000000000000e+00   0.0000000000000000e+00   0.0000000000000000e+00   0.0000000000000000e+00   0.0000000000000000e+00   0.0000000000000000e+00   0.0000000000000000e+00   0.0000000000000000e+00   0.0000000000000000e+00   0.0000000000000000e+00   0.0000000000000000e+00   0.0000000000000000e+00   0.0000000000000000e+00   0.0000000000000000e+00   0.0000000000000000e+00   0.0000000000000000e+00   0.0000000000000000e+00   0.0000000000000000e+00   0.0000000000000000e+00   0.0000000000000000e+00   0.0000000000000000e+00   0.0000000000000000e+00   0.0000000000000000e+00   0.0000000000000000e+00   0.0000000000000000e+00   0.0000000000000000e+00   0.0000000000000000e+00   0.0000000000000000e+00   0.0000000000000000e+00   0.0000000000000000e+00   0.0000000000000000e+00   0.0000000000000000e+00   0.0000000000000000e+00   0.0000000000000000e+00   0.0000000000000000e+00   0.0000000000000000e+00   0.0000000000000000e+00   0.0000000000000000e+00   0.0000000000000000e+00   0.0000000000000000e+00   0.0000000000000000e+00   0.0000000000000000e+00   0.0000000000000000e+00   0.0000000000000000e+00   0.0000000000000000e+00   0.0000000000000000e+00   0.0000000000000000e+00   0.0000000000000000e+00   0.0000000000000000e+00   0.0000000000000000e+00   0.0000000000000000e+00   0.0000000000000000e+00   0.0000000000000000e+00   0.0000000000000000e+00   0.0000000000000000e+00   0.0000000000000000e+00   0.0000000000000000e+00   0.0000000000000000e+00   0.0000000000000000e+00   0.0000000000000000e+00   0.0000000000000000e+00   0.0000000000000000e+00   0.0000000000000000e+00   0.0000000000000000e+00   0.0000000000000000e+00   0.0000000000000000e+00   0.0000000000000000e+00   0.0000000000000000e+00   0.0000000000000000e+00   0.0000000000000000e+00   0.0000000000000000e+00   0.0000000000000000e+00   0.0000000000000000e+00   0.0000000000000000e+00   0.0000000000000000e+00   0.0000000000000000e+00   0.0000000000000000e+00   0.0000000000000000e+00   0.0000000000000000e+00   0.0000000000000000e+00   0.0000000000000000e+00   0.0000000000000000e+00   0.0000000000000000e+00   0.0000000000000000e+00   0.0000000000000000e+00   0.0000000000000000e+00   0.0000000000000000e+00   0.0000000000000000e+00   0.0000000000000000e+00   0.0000000000000000e+00   0.0000000000000000e+00   0.0000000000000000e+00   0.0000000000000000e+00   0.0000000000000000e+00   0.0000000000000000e+00   0.0000000000000000e+00   0.0000000000000000e+00   0.0000000000000000e+00   0.0000000000000000e+00   0.0000000000000000e+00   0.0000000000000000e+00   0.0000000000000000e+00   0.0000000000000000e+00   0.0000000000000000e+00   0.0000000000000000e+00   0.0000000000000000e+00   0.0000000000000000e+00   0.0000000000000000e+00   0.0000000000000000e+00   0.0000000000000000e+00   0.0000000000000000e+00   0.0000000000000000e+00   0.0000000000000000e+00   0.0000000000000000e+00   0.0000000000000000e+00   0.0000000000000000e+00   0.0000000000000000e+00   0.0000000000000000e+00   0.0000000000000000e+00   0.0000000000000000e+00   0.0000000000000000e+00   0.0000000000000000e+00   0.0000000000000000e+00   0.0000000000000000e+00   0.0000000000000000e+00   0.0000000000000000e+00   0.0000000000000000e+00   0.0000000000000000e+00   0.0000000000000000e+00   0.00000000000000