<?xml version="1.0"?>
<VTKFile type="UnstructuredGrid"  version="0.1"  >
<UnstructuredGrid>
<Piece  NumberOfPoints="16641" NumberOfCells="32768">
<Points>
<DataArray  type="Float64"  NumberOfComponents="3"  format="ascii">0 0 0  0.0078125 0 0  0.015625 0 0  0.0234375 0 0  0.03125 0 0  0.0390625 0 0  0.046875 0 0  0.0546875 0 0  0.0625 0 0  0.0703125 0 0  0.078125 0 0  0.0859375 0 0  0.09375 0 0  0.1015625 0 0  0.109375 0 0  0.1171875 0 0  0.125 0 0  0.1328125 0 0  0.140625 0 0  0.1484375 0 0  0.15625 0 0  0.1640625 0 0  0.171875 0 0  0.1796875 0 0  0.1875 0 0  0.1953125 0 0  0.203125 0 0  0.2109375 0 0  0.21875 0 0  0.2265625 0 0  0.234375 0 0  0.2421875 0 0  0.25 0 0  0.2578125 0 0  0.265625 0 0  0.2734375 0 0  0.28125 0 0  0.2890625 0 0  0.296875 0 0  0.3046875 0 0  0.3125 0 0  0.3203125 0 0  0.328125 0 0  0.3359375 0 0  0.34375 0 0  0.3515625 0 0  0.359375 0 0  0.3671875 0 0  0.375 0 0  0.3828125 0 0  0.390625 0 0  0.3984375 0 0  0.40625 0 0  0.4140625 0 0  0.421875 0 0  0.4296875 0 0  0.4375 0 0  0.4453125 0 0  0.453125 0 0  0.4609375 0 0  0.46875 0 0  0.4765625 0 0  0.484375 0 0  0.4921875 0 0  0.5 0 0  0.5078125 0 0  0.515625 0 0  0.5234375 0 0  0.53125 0 0  0.5390625 0 0  0.546875 0 0  0.5546875 0 0  0.5625 0 0  0.5703125 0 0  0.578125 0 0  0.5859375 0 0  0.59375 0 0  0.6015625 0 0  0.609375 0 0  0.6171875 0 0  0.625 0 0  0.6328125 0 0  0.640625 0 0  0.6484375 0 0  0.65625 0 0  0.6640625 0 0  0.671875 0 0  0.6796875 0 0  0.6875 0 0  0.6953125 0 0  0.703125 0 0  0.7109375 0 0  0.71875 0 0  0.7265625 0 0  0.734375 0 0  0.7421875 0 0  0.75 0 0  0.7578125 0 0  0.765625 0 0  0.7734375 0 0  0.78125 0 0  0.7890625 0 0  0.796875 0 0  0.8046875 0 0  0.8125 0 0  0.8203125 0 0  0.828125 0 0  0.8359375 0 0  0.84375 0 0  0.8515625 0 0  0.859375 0 0  0.8671875 0 0  0.875 0 0  0.8828125 0 0  0.890625 0 0  0.8984375 0 0  0.90625 0 0  0.9140625 0 0  0.921875 0 0  0.9296875 0 0  0.9375 0 0  0.9453125 0 0  0.953125 0 0  0.9609375 0 0  0.96875 0 0  0.9765625 0 0  0.984375 0 0  0.9921875 0 0  1 0 0  0 0.0078125 0  0.0078125 0.0078125 0  0.015625 0.0078125 0  0.0234375 0.0078125 0  0.03125 0.0078125 0  0.0390625 0.0078125 0  0.046875 0.0078125 0  0.0546875 0.0078125 0  0.0625 0.0078125 0  0.0703125 0.0078125 0  0.078125 0.0078125 0  0.0859375 0.0078125 0  0.09375 0.0078125 0  0.1015625 0.0078125 0  0.109375 0.0078125 0  0.1171875 0.0078125 0  0.125 0.0078125 0  0.1328125 0.0078125 0  0.140625 0.0078125 0  0.1484375 0.0078125 0  0.15625 0.0078125 0  0.1640625 0.0078125 0  0.171875 0.0078125 0  0.1796875 0.0078125 0  0.1875 0.0078125 0  0.1953125 0.0078125 0  0.203125 0.0078125 0  0.2109375 0.0078125 0  0.21875 0.0078125 0  0.2265625 0.0078125 0  0.234375 0.0078125 0  0.2421875 0.0078125 0  0.25 0.0078125 0  0.2578125 0.0078125 0  0.265625 0.0078125 0  0.2734375 0.0078125 0  0.28125 0.0078125 0  0.2890625 0.0078125 0  0.296875 0.0078125 0  0.3046875 0.0078125 0  0.3125 0.0078125 0  0.3203125 0.0078125 0  0.328125 0.0078125 0  0.3359375 0.0078125 0  0.34375 0.0078125 0  0.3515625 0.0078125 0  0.359375 0.0078125 0  0.3671875 0.0078125 0  0.375 0.0078125 0  0.3828125 0.0078125 0  0.390625 0.0078125 0  0.3984375 0.0078125 0  0.40625 0.0078125 0  0.4140625 0.0078125 0  0.421875 0.0078125 0  0.4296875 0.0078125 0  0.4375 0.0078125 0  0.4453125 0.0078125 0  0.453125 0.0078125 0  0.4609375 0.0078125 0  0.46875 0.0078125 0  0.4765625 0.0078125 0  0.484375 0.0078125 0  0.4921875 0.0078125 0  0.5 0.0078125 0  0.5078125 0.0078125 0  0.515625 0.0078125 0  0.5234375 0.0078125 0  0.53125 0.0078125 0  0.5390625 0.0078125 0  0.546875 0.0078125 0  0.5546875 0.0078125 0  0.5625 0.0078125 0  0.5703125 0.0078125 0  0.578125 0.0078125 0  0.5859375 0.0078125 0  0.59375 0.0078125 0  0.6015625 0.0078125 0  0.609375 0.0078125 0  0.6171875 0.0078125 0  0.625 0.0078125 0  0.6328125 0.0078125 0  0.640625 0.0078125 0  0.6484375 0.0078125 0  0.65625 0.0078125 0  0.6640625 0.0078125 0  0.671875 0.0078125 0  0.6796875 0.0078125 0  0.6875 0.0078125 0  0.6953125 0.0078125 0  0.703125 0.0078125 0  0.7109375 0.0078125 0  0.71875 0.0078125 0  0.7265625 0.0078125 0  0.734375 0.0078125 0  0.7421875 0.0078125 0  0.75 0.0078125 0  0.7578125 0.0078125 0  0.765625 0.0078125 0  0.7734375 0.0078125 0  0.78125 0.0078125 0  0.7890625 0.0078125 0  0.796875 0.0078125 0  0.8046875 0.0078125 0  0.8125 0.0078125 0  0.8203125 0.0078125 0  0.828125 0.0078125 0  0.8359375 0.0078125 0  0.84375 0.0078125 0  0.8515625 0.0078125 0  0.859375 0.0078125 0  0.8671875 0.0078125 0  0.875 0.0078125 0  0.8828125 0.0078125 0  0.890625 0.0078125 0  0.8984375 0.0078125 0  0.90625 0.0078125 0  0.9140625 0.0078125 0  0.921875 0.0078125 0  0.9296875 0.0078125 0  0.9375 0.0078125 0  0.9453125 0.0078125 0  0.953125 0.0078125 0  0.9609375 0.0078125 0  0.96875 0.0078125 0  0.9765625 0.0078125 0  0.984375 0.0078125 0  0.9921875 0.0078125 0  1 0.0078125 0  0 0.015625 0  0.0078125 0.015625 0  0.015625 0.015625 0  0.0234375 0.015625 0  0.03125 0.015625 0  0.0390625 0.015625 0  0.046875 0.015625 0  0.0546875 0.015625 0  0.0625 0.015625 0  0.0703125 0.015625 0  0.078125 0.015625 0  0.0859375 0.015625 0  0.09375 0.015625 0  0.1015625 0.015625 0  0.109375 0.015625 0  0.1171875 0.015625 0  0.125 0.015625 0  0.1328125 0.015625 0  0.140625 0.015625 0  0.1484375 0.015625 0  0.15625 0.015625 0  0.1640625 0.015625 0  0.171875 0.015625 0  0.1796875 0.015625 0  0.1875 0.015625 0  0.1953125 0.015625 0  0.203125 0.015625 0  0.2109375 0.015625 0  0.21875 0.015625 0  0.2265625 0.015625 0  0.234375 0.015625 0  0.2421875 0.015625 0  0.25 0.015625 0  0.2578125 0.015625 0  0.265625 0.015625 0  0.2734375 0.015625 0  0.28125 0.015625 0  0.2890625 0.015625 0  0.296875 0.015625 0  0.3046875 0.015625 0  0.3125 0.015625 0  0.3203125 0.015625 0  0.328125 0.015625 0  0.3359375 0.015625 0  0.34375 0.015625 0  0.3515625 0.015625 0  0.359375 0.015625 0  0.3671875 0.015625 0  0.375 0.015625 0  0.3828125 0.015625 0  0.390625 0.015625 0  0.3984375 0.015625 0  0.40625 0.015625 0  0.4140625 0.015625 0  0.421875 0.015625 0  0.4296875 0.015625 0  0.4375 0.015625 0  0.4453125 0.015625 0  0.453125 0.015625 0  0.4609375 0.015625 0  0.46875 0.015625 0  0.4765625 0.015625 0  0.484375 0.015625 0  0.4921875 0.015625 0  0.5 0.015625 0  0.5078125 0.015625 0  0.515625 0.015625 0  0.5234375 0.015625 0  0.53125 0.015625 0  0.5390625 0.015625 0  0.546875 0.015625 0  0.5546875 0.015625 0  0.5625 0.015625 0  0.5703125 0.015625 0  0.578125 0.015625 0  0.5859375 0.015625 0  0.59375 0.015625 0  0.6015625 0.015625 0  0.609375 0.015625 0  0.6171875 0.015625 0  0.625 0.015625 0  0.6328125 0.015625 0  0.640625 0.015625 0  0.6484375 0.015625 0  0.65625 0.015625 0  0.6640625 0.015625 0  0.671875 0.015625 0  0.6796875 0.015625 0  0.6875 0.015625 0  0.6953125 0.015625 0  0.703125 0.015625 0  0.7109375 0.015625 0  0.71875 0.015625 0  0.7265625 0.015625 0  0.734375 0.015625 0  0.7421875 0.015625 0  0.75 0.015625 0  0.7578125 0.015625 0  0.765625 0.015625 0  0.7734375 0.015625 0  0.78125 0.015625 0  0.7890625 0.015625 0  0.796875 0.015625 0  0.8046875 0.015625 0  0.8125 0.015625 0  0.8203125 0.015625 0  0.828125 0.015625 0  0.8359375 0.015625 0  0.84375 0.015625 0  0.8515625 0.015625 0  0.859375 0.015625 0  0.8671875 0.015625 0  0.875 0.015625 0  0.8828125 0.015625 0  0.890625 0.015625 0  0.8984375 0.015625 0  0.90625 0.015625 0  0.9140625 0.015625 0  0.921875 0.015625 0  0.9296875 0.015625 0  0.9375 0.015625 0  0.9453125 0.015625 0  0.953125 0.015625 0  0.9609375 0.015625 0  0.96875 0.015625 0  0.9765625 0.015625 0  0.984375 0.015625 0  0.9921875 0.015625 0  1 0.015625 0  0 0.0234375 0  0.0078125 0.0234375 0  0.015625 0.0234375 0  0.0234375 0.0234375 0  0.03125 0.0234375 0  0.0390625 0.0234375 0  0.046875 0.0234375 0  0.0546875 0.0234375 0  0.0625 0.0234375 0  0.0703125 0.0234375 0  0.078125 0.0234375 0  0.0859375 0.0234375 0  0.09375 0.0234375 0  0.1015625 0.0234375 0  0.109375 0.0234375 0  0.1171875 0.0234375 0  0.125 0.0234375 0  0.1328125 0.0234375 0  0.140625 0.0234375 0  0.1484375 0.0234375 0  0.15625 0.0234375 0  0.1640625 0.0234375 0  0.171875 0.0234375 0  0.1796875 0.0234375 0  0.1875 0.0234375 0  0.1953125 0.0234375 0  0.203125 0.0234375 0  0.2109375 0.0234375 0  0.21875 0.0234375 0  0.2265625 0.0234375 0  0.234375 0.0234375 0  0.2421875 0.0234375 0  0.25 0.0234375 0  0.2578125 0.0234375 0  0.265625 0.0234375 0  0.2734375 0.0234375 0  0.28125 0.0234375 0  0.2890625 0.0234375 0  0.296875 0.0234375 0  0.3046875 0.0234375 0  0.3125 0.0234375 0  0.3203125 0.0234375 0  0.328125 0.0234375 0  0.3359375 0.0234375 0  0.34375 0.0234375 0  0.3515625 0.0234375 0  0.359375 0.0234375 0  0.3671875 0.0234375 0  0.375 0.0234375 0  0.3828125 0.0234375 0  0.390625 0.0234375 0  0.3984375 0.0234375 0  0.40625 0.0234375 0  0.4140625 0.0234375 0  0.421875 0.0234375 0  0.4296875 0.0234375 0  0.4375 0.0234375 0  0.4453125 0.0234375 0  0.453125 0.0234375 0  0.4609375 0.0234375 0  0.46875 0.0234375 0  0.4765625 0.0234375 0  0.484375 0.0234375 0  0.4921875 0.0234375 0  0.5 0.0234375 0  0.5078125 0.0234375 0  0.515625 0.0234375 0  0.5234375 0.0234375 0  0.53125 0.0234375 0  0.5390625 0.0234375 0  0.546875 0.0234375 0  0.5546875 0.0234375 0  0.5625 0.0234375 0  0.5703125 0.0234375 0  0.578125 0.0234375 0  0.5859375 0.0234375 0  0.59375 0.0234375 0  0.6015625 0.0234375 0  0.609375 0.0234375 0  0.6171875 0.0234375 0  0.625 0.0234375 0  0.6328125 0.0234375 0  0.640625 0.0234375 0  0.6484375 0.0234375 0  0.65625 0.0234375 0  0.6640625 0.0234375 0  0.671875 0.0234375 0  0.6796875 0.0234375 0  0.6875 0.0234375 0  0.6953125 0.0234375 0  0.703125 0.0234375 0  0.7109375 0.0234375 0  0.71875 0.0234375 0  0.7265625 0.0234375 0  0.734375 0.0234375 0  0.7421875 0.0234375 0  0.75 0.0234375 0  0.7578125 0.0234375 0  0.765625 0.0234375 0  0.7734375 0.0234375 0  0.78125 0.0234375 0  0.7890625 0.0234375 0  0.796875 0.0234375 0  0.8046875 0.0234375 0  0.8125 0.0234375 0  0.8203125 0.0234375 0  0.828125 0.0234375 0  0.8359375 0.0234375 0  0.84375 0.0234375 0  0.8515625 0.0234375 0  0.859375 0.0234375 0  0.8671
[...]
<CellData  Scalars="f_2820"> 
<DataArray  type="Float64"  Name="f_2820"  format="ascii">1.7473979962524699e-02   1.7474201258532007e-02   3.1228161832204289e-02   7.2011809911417063e-02   3.3512978647549575e-02   9.6920869032260812e-02   3.0862908836469707e-02   9.6341832118694112e-02   2.6197855594733668e-02   8.5287809029279460e-02   2.0705183258357896e-02   7.0008030512217725e-02   1.5190785636481347e-02   5.3447904708047528e-02   1.0394194666358771e-02   3.7980667911315949e-02   6.7465446789814641e-03   2.5367746119664147e-02   4.2700024941094653e-03   1.6265356642098449e-02   2.7235579130480895e-03   1.0310354391601821e-02   1.8088263128096878e-03   6.6785050317118471e-03   1.2894882987002103e-03   4.5727274957112736e-03   9.9146986911493869e-04   3.3722899758329983e-03   8.1952065463523243e-04   2.6793354136122271e-03   7.2099803437023196e-04   2.2832994234436468e-03   6.7751816665506258e-04   2.0607434267938952e-03   6.8753373087076120e-04   2.0463426322560995e-03   7.1267958215870777e-04   2.1020689000207870e-03   7.4174494941536785e-04   2.1848200239804249e-03   7.6616891262193225e-04   2.2654180119843618e-03   7.7966861242751459e-04   2.3209068232298074e-03   7.8119216539480570e-04   2.3423730767701692e-03   7.7047076486552626e-04   2.3250215569441735e-03   7.5419159426378757e-04   2.2843710695685492e-03   7.3155180534657403e-04   2.2238793836533472e-03   7.0756628883360099e-04   2.1525726248601356e-03   6.8602734277941019e-04   2.0838508929215426e-03   6.6977145089933772e-04   2.0261648075914885e-03   6.6367564599160316e-04   1.9919627018307818e-03   6.7022033208194800e-04   1.9923470706255299e-03   6.9356148884501144e-04   2.0360060796052047e-03   7.3720736113267794e-04   2.1381249184337010e-03   8.0113202004553584e-04   2.2974632866895181e-03   8.8463745565698542e-04   2.5226999455230546e-03   9.8354083133733836e-04   2.7944741236474910e-03   1.1145509211325743e-03   3.1513948322884049e-03   1.2495502624688022e-03   3.5582479060786007e-03   1.3746917765163019e-03   3.9516104296080067e-03   1.4820869487714339e-03   4.3047814332774345e-03   1.5667669935006587e-03   4.5923868161646120e-03   1.6348754960758870e-03   4.8207858927781892e-03   1.6891852132763958e-03   5.0009857327524814e-03   1.7356283403101957e-03   5.1500906674848213e-03   1.7670923485227376e-03   5.2637358008120593e-03   1.7734122408549185e-03   5.3160340021092137e-03   1.7447926641068875e-03   5.2777776570087104e-03   1.6780251262327921e-03   5.1293573302823242e-03   1.5781385939068759e-03   4.8738356364091866e-03   1.4581698805251205e-03   4.5393183986802569e-03   1.3373716389297071e-03   4.1731903166579050e-03   1.2283721895421133e-03   3.8305503071058423e-03   1.1340398148005160e-03   3.5246090906670994e-03   1.0613269970497893e-03   3.2701411284534209e-03   1.0051063677104393e-03   3.0909834236975335e-03   9.5577637827792058e-04   2.9314573128691917e-03   9.2160302374036710e-04   2.8029688034031100e-03   9.1451870456656710e-04   2.7519540424525697e-03   9.2611958063482341e-04   2.7586044207148839e-03   9.5496506370651533e-04   2.8208592730874248e-03   9.8978185469599553e-04   2.9173036221717529e-03   1.0126836748978096e-03   3.0045167261414409e-03   1.0048770086816205e-03   3.0248513030796554e-03   9.7285910895152192e-04   2.9639614087374065e-03   9.2831869045467881e-04   2.8459270087374307e-03   9.0488312803968984e-04   2.7456468095801690e-03   9.2452686203146016e-04   2.7485817481890029e-03   9.7170082969505239e-04   2.8684466980608875e-03   9.8084760765326925e-04   2.9775483485462943e-03   8.7662088938422441e-04   2.8512034232888589e-03   6.4181939976773190e-04   2.3366037135450690e-03   3.4171667859811877e-04   1.5087089810055497e-03   6.1002912771367031e-05   6.2567391366388542e-04   0.0000000000000000e+00   0.0000000000000000e+00   0.0000000000000000e+00   0.0000000000000000e+00   0.0000000000000000e+00   0.0000000000000000e+00   0.0000000000000000e+00   0.0000000000000000e+00   0.0000000000000000e+00   0.0000000000000000e+00   0.0000000000000000e+00   0.0000000000000000e+00   0.0000000000000000e+00   0.0000000000000000e+00   0.0000000000000000e+00   0.0000000000000000e+00   0.0000000000000000e+00   0.0000000000000000e+00   0.0000000000000000e+00   0.0000000000000000e+00   0.0000000000000000e+00   0.0000000000000000e+00   0.0000000000000000e+00   0.0000000000000000e+00   0.0000000000000000e+00   0.0000000000000000e+00   0.0000000000000000e+00   0.0000000000000000e+00   0.0000000000000000e+00   0.0000000000000000e+00   0.0000000000000000e+00   0.0000000000000000e+00   0.0000000000000000e+00   0.0000000000000000e+00   9.0967606627633758e-05   0.0000000000000000e+00   5.1131266692451755e-04   9.1985267962297744e-04   8.0694223177017028e-04   1.9924322569857861e-03   8.5289433491354111e-04   2.4966366646361937e-03   5.8855932499675943e-04   2.1386946684147242e-03   5.7644594674145910e-05   9.1288809719146803e-04   0.0000000000000000e+00   0.0000000000000000e+00   0.0000000000000000e+00   0.0000000000000000e+00   0.0000000000000000e+00   0.0000000000000000e+00   0.0000000000000000e+00   0.0000000000000000e+00   0.0000000000000000e+00   0.0000000000000000e+00   0.0000000000000000e+00   0.0000000000000000e+00   0.0000000000000000e+00   0.0000000000000000e+00   0.0000000000000000e+00   0.0000000000000000e+00   0.0000000000000000e+00   0.0000000000000000e+00   0.0000000000000000e+00   0.0000000000000000e+00   0.0000000000000000e+00   0.0000000000000000e+00   0.0000000000000000e+00   0.0000000000000000e+00   0.0000000000000000e+00   0.0000000000000000e+00   0.0000000000000000e+00   0.0000000000000000e+00   0.0000000000000000e+00   0.0000000000000000e+00   0.0000000000000000e+00   0.0000000000000000e+00   3.1005638429825529e-04   0.0000000000000000e+00   1.5982560416139325e-03   2.7871478002384764e-03   3.1595120118299035e-03   7.0500949795491898e-03   4.8359657473268708e-03   1.1901526920303955e-02   6.4337061627771138e-03   1.6806787394798600e-02   7.7847470705255618e-03   2.1216343973279789e-02   8.7808047848251976e-03   2.4717447792468556e-02   9.3693000487645398e-03   2.7070302822548790e-02   9.5342860544069818e-03   2.8176358379065354e-02   9.3232604413697410e-03   2.8015614832420557e-02   8.8516553165888228e-03   2.7189461961568961e-02   7.8100495064861832e-03   2.4915966438540039e-02   6.0886288565299438e-03   2.0749913090625637e-02   3.7398773001424404e-03   1.4575353170794551e-02   1.2727813574987435e-03   7.1876840418723048e-03   0.0000000000000000e+00   1.2709061871794324e-03   7.2780890113805452e-02   3.1784872164566227e-02   2.0406517573256172e-01   2.0520149467251375e-01   2.5258339749463599e-01   3.0215500720134753e-01   2.5009043336542980e-01   3.1873589882336589e-01   2.2516133524110388e-01   3.0104635986937811e-01   1.8863393733339054e-01   2.6486796707719618e-01   1.4652131946884039e-01   2.1671461785443705e-01   1.0554497860357319e-01   1.6407814339536553e-01   7.1378842889529781e-02   1.1564384793925692e-01   4.6449982809645407e-02   7.7395296922745313e-02   3.0041515793587742e-02   5.0688173142355693e-02   1.9979134935128932e-02   3.3627201419866068e-02   1.4130989752506125e-02   2.3413566786523930e-02   1.0740717423976047e-02   1.7459809160060995e-02   8.7787550500937062e-03   1.3974755266813016e-02   7.6521342640530040e-03   1.1969467107071032e-02   7.1241083430886266e-03   1.0835292285440466e-02   7.1774680468764951e-03   1.0731872815032210e-02   7.4088348911247751e-03   1.1004220467961456e-02   7.7004665906664979e-03   1.1422900386504509e-02   7.9605680931136118e-03   1.1839277874608426e-02   8.1181794672844417e-03   1.2136749198847970e-02   8.1579554334143406e-03   1.2261895048903411e-02   8.0675447481340160e-03   1.2190951700996969e-02   7.9151342939417640e-03   1.1995177078615001e-02   7.6923576374735856e-03   1.1697625913653038e-02   7.4488605694636679e-03   1.1342614840091655e-02   7.2245599108104672e-03   1.0997360568683744e-02   7.0464599945351822e-03   1.0706711115441353e-02   6.9630532659460467e-03   1.0530644841192663e-02   7.0002148121214329e-03   1.0523306648750605e-02   7.2024555574503350e-03   1.0731972888409632e-02   7.6011810004854479e-03   1.1223509385071995e-02   8.2035766511353303e-03   1.1997601874153548e-02   9.0053654820969851e-03   1.3095046133885844e-02   9.9690258826358787e-03   1.4417618286038521e-02   1.1269015719638313e-02   1.6167878370850083e-02   1.2630384263292571e-02   1.8161537837877557e-02   1.3917750626634164e-02   2.0101293387584061e-02   1.5041254905151367e-02   2.1854501179988401e-02   1.5935487071143478e-02   2.3286460955537155e-02   1.6645138873417425e-02   2.4416118703068347e-02   1.7195964745616351e-02   2.5292407407642374e-02   1.7653999313530039e-02   2.5997645733379572e-02   1.7969475265764197e-02   2.6530274816897934e-02   1.8057906382892182e-02   2.6774440143682198e-02   1.7830112160942421e-02   2.6607611452612978e-02   1.7244715178376238e-02   2.5938000548549438e-02   1.6327801760465332e-02   2.4768007696113915e-02   1.5186764990264046e-02   2.3212050019249746e-02   1.3994193350708992e-02   2.1470866814582650e-02   1.2881299417133889e-02   1.9806698548974461e-02   1.1889503076491954e-02   1.8277936368300822e-02   1.1106315303641220e-02   1.6962109363047581e-02   1.0501487184824864e-02   1.6024572490191527e-02   9.9640974051035443e-03   1.5175306531985034e-02   9.5741367106396483e-03   1.4481768699068941e-02   9.4416418787488330e-03   1.4148404562101841e-02   9.4859324283556087e-03   1.4098342591226222e-02   9.6990460248976614e-03   1.4305465050293184e-02   9.9880312321356038e-03   1.4673120005989979e-02   1.0193757339971798e-02   1.5005144598781477e-02   1.0137579747128617e-02   1.5033253483300337e-02   9.8434696258021641e-03   1.4684609065442548e-02   9.3846646352932321e-03   1.4028155593098585e-02   9.0526474605175135e-03   1.3381627553512253e-02   9.0660710370071007e-03   1.3112879258800725e-02   9.3731284210650297e-03   1.3327990637131528e-02   9.4641693186778824e-03   1.3537379118436771e-02   8.6310289768453397e-03   1.2792000922299122e-02   6.5714156784313924e-03   1.0376298027047946e-02   3.7501068032514549e-03   6.5558905284327203e-03   9.1784225223171933e-04   2.4006037106846681e-03   0.0000000000000000e+00   0.0000000000000000e+00   0.0000000000000000e+00   0.0000000000000000e+00   0.0000000000000000e+00   0.0000000000000000e+00   0.0000000000000000e+00   0.0000000000000000e+00   0.0000000000000000e+00   0.0000000000000000e+00   0.0000000000000000e+00   0.0000000000000000e+00   0.0000000000000000e+00   0.0000000000000000e+00   0.0000000000000000e+00   0.0000000000000000e+00   0.0000000000000000e+00   0.0000000000000000e+00   0.0000000000000000e+00   0.0000000000000000e+00   0.0000000000000000e+00   0.0000000000000000e+00   0.0000000000000000e+00   0.0000000000000000e+00   0.0000000000000000e+00   0.0000000000000000e+00   0.0000000000000000e+00   0.0000000000000000e+00   0.0000000000000000e+00   0.0000000000000000e+00   0.0000000000000000e+00   0.0000000000000000e+00   0.0000000000000000e+00   0.0000000000000000e+00   0.0000000000000000e+00   0.0000000000000000e+00   1.6702930202602282e-03   0.0000000000000000e+00   4.5810062294683786e-03   3.3087755413917274e-03   5.4188091460206141e-03   5.5928867517583527e-03   3.4919569317804059e-03   4.1784444270841761e-03   0.0000000000000000e+00   0.0000000000000000e+00   0.0000000000000000e+00   0.0000000000000000e+00   0.0000000000000000e+00   0.0000000000000000e+00   0.0000000000000000e+00   0.0000000000000000e+00   0.0000000000000000e+00   0.0000000000000000e+00   0.0000000000000000e+00   0.0000000000000000e+00   0.0000000000000000e+00   0.0000000000000000e+00   0.0000000000000000e+00   0.0000000000000000e+00   0.0000000000000000e+00   0.0000000000000000e+00   0.0000000000000000e+00   0.0000000000000000e+00   0.0000000000000000e+00   0.0000000000000000e+00   0.0000000000000000e+00   0.0000000000000000e+00   0.0000000000000000e+00   0.0000000000000000e+00   0.0000000000000000e+00   0.0000000000000000e+00   0.0000000000000000e+00   0.0000000000000000e+00   0.0000000000000000e+00   0.0000000000000000e+00   0.0000000000000000e+00   0.0000000000000000e+00   0.0000000000000000e+00   0.0000000000000000e+00   1.1630523680865753e-02   9.6287554643073123e-03   2.6304208185056629e-02   2.9736624656512663e-02   4.2327398342543926e-02   5.2550799429137832e-02   5.7851367816329470e-02   7.5472473823491038e-02   7.1225694306899609e-02   9.5923552376617691e-02   8.1361409572629162e-02   1.1207281165134379e-01   8.7713936504024245e-02   1.2295117995818693e-01   9.0104724684033979e-02   1.2820885029476081e-01   8.9063328527721752e-02   1.2780709324664663e-01   8.5656485055336351e-02   1.2479170125609240e-01   7.7012377833189122e-02   1.1518764701525488e-01   6.1968803613604045e-02   9.6921472412598922e-02   4.0606509240231133e-02   6.9219928597924557e-02   1.6831180266003481e-02   3.5432132849238393e-02   1.2651935117363518e-03   7.1803417738007186e-03   9.9799017445514310e-02   3.4881065780420412e-02   3.0518038459559621e-01   2.5838143479887599e-01   3.9617658634321207e-01   3.9806899124352763e-01   4.1275104019861408e-01   4.3775278832877512e-01   3.9505447872598942e-01   4.3468350094188046e-01   3.5401056384311230e-01   4.0466948063037889e-01   2.9461161095320720e-01   3.5202348648599657e-01   2.2649314547752206e-01   2.8335240597025080e-01   1.6222595732276876e-01   2.1146960877078902e-01   1.1075604420501577e-01   1.4886206690813636e-01   7.4479015888945510e-02   1.0180984411075018e-01   5.1085672529107007e-02   7.0038502753437398e-02   3.6999126789116300e-02   5.0243626181959232e-02   2.8621696487625314e-02   3.8350775422112307e-02   2.3694762271975357e-02   3.1243077932454358e-02   2.0850685747914183e-02   2.7121480251590644e-02   1.9476010400237231e-02   2.4784080352626643e-02   1.9622273645694886e-02   2.4546470609238931e-02   2.0232131757834036e-02   2.5161795693632010e-02   2.1005703025921099e-02   2.6094870273115009e-02   2.1703194690258523e-02   2.7024010991316367e-02   2.2140576378694338e-02   2.7706452504727752e-02   2.2269751166299492e-02   2.8003301292326796e-02   2.2053920998189373e-02   2.7883058721827367e-02   2.1671174540005726e-02   2.7472816326575274e-02   2.1102178490502541e-02   2.6840965180836247e-02   2.0479204047560051e-02   2.6085698996733603e-02   1.9905266310977245e-02   2.5348958727366477e-02   1.9457792776257969e-02   2.4744384311027934e-02   1.9249710523301773e-02   2.4380656153235845e-02   1.9349030684707062e-02   2.4380490621939477e-02   1.9885805971643446e-02   2.4857775410073293e-02   2.0901395581732669e-02   2.5911989576347997e-02   2.2438071103703570e-02   2.7567203566590995e-02   2.4465872862557098e-02   2.9888942035178973e-02   2.6884084824159993e-02   3.2652094012726035e-02   3.0147237244673646e-02   3.6310027706979782e-02   3.3547673681247003e-02   4.0428933405442596e-02   3.6771362139538064e-02   4.4435124333274380e-02   3.9587761546662326e-02   4.8054189331791820e-02   4.1834260907355959e-02   5.1011750974833743e-02   4.3595465607938789e-02   5.3321746942822025e-02   4.4940502382706971e-02   5.5092201590659882e-02   4.6025447845707015e-02   5.6475472639314579e-02   4.6752682080760534e-02   5.7494584870970797e-02   4.6935000709139071e-02   5.7936024990224953e-02   4.6385865922053328e-02   5.7578653626551832e-02   4.5014795581241891e-02   5.6274448227485403e-02   4.2865838752249162e-02   5.4014494620262331e-02   4.0165081911762129e-02   5.0995295834572074e-02   3.7277712677415406e-02   4.7539990878090660e-02   3.4519785838239198e-02   4.4174802458622750e-02   3.1976045137997171e-02   4.0968869203365448e-02   2.9873413602688088e-02   3.8075082992509127e-02   2.8227852643226175e-02   3.5959086095613976e-02   2.6734503178125892e-02   3.4003005172815487e-02   2.5632107406552272e-02   3.2391389589596781e-02   2.5129155138842084e-02   3.1460710690334501e-02   2.5071789474473877e-02   3.1144485502184384e-02   2.5399188259632006e-02   3.1310930122930777e-02   2.5886814008297471e-02   3.1759510002251731e-02   2.6161986345408939e-02   3.2108351607741975e-02   2.5817435458081201e-02   3.1834284744490841e-02   2.4886303128730591e-02   3.0829877882068143e-02   2.3499492141758969e-02   2.9151189876037657e-02   2.2284478434599693e-02   2.7368619097263472e-02   2.1682265431649313e-02   2.6081027092816997e-02   2.1631407378722167e-02   2.5510071956079745e-02   2.1119029334990859e-02   2.4869661037087411e-02   1.8678774845257453e-02   2.2585644211327811e-02   1.3657181568910876e-02   1.7444302906987074e-02   7.0418263030004565e-03   9.9615440763120219e-03   3.3736111116923164e-04   1.8680350332083923e-03   0.0000000000000000e+00   0.0000000000000000e+00   0.0000000000000000e+00   0.0000000000000000e+00   0.0000000000000000e+00   0.0000000000000000e+00   0.0000000000000000e+00   0.0000000000000000e+00   0.0000000000000000e+00   0.0000000000000000e+00   0.0000000000000000e+00   0.0000000000000000e+00   0.0000000000000000e+00   0.0000000000000000e+00   0.0000000000000000e+00   0.0000000000000000e+00   0.0000000000000000e+00   0.0000000000000000e+00   0.0000000000000000e+00   0.0000000000000000e+00   0.0000000000000000e+00   0.0000000000000000e+00   0.0000000000000000e+00   0.0000000000000000e+00   0.0000000000000000e+00   0.0000000000000000e+00   0.0000000000000000e+00   0.0000000000000000e+00   0.0000000000000000e+00   0.0000000000000000e+00   0.0000000000000000e+00   0.0000000000000000e+00   0.0000000000000000e+00   0.0000000000000000e+00   0.0000000000000000e+00   0.0000000000000000e+00   0.0000000000000000e+00   0.0000000000000000e+00   0.0000000000000000e+00   0.0000000000000000e+00   0.0000000000000000e+00   0.0000000000000000e+00   0.0000000000000000e+00   0.0000000000000000e+00   0.0000000000000000e+00   0.0000000000000000e+00   0.0000000000000000e+00   0.0000000000000000e+00   0.0000000000000000e+00   0.0000000000000000e+00   0.0000000000000000e+00   0.0000000000000000e+00   0.0000000000000000e+00   0.0000000000000000e+00   0.0000000000000000e+00   0.0000000000000000e+00   0.0000000000000000e+00   0.0000000000000000e+00   0.0000000000000000e+00   0.0000000000000000e+00   0.0000000000000000e+00   0.0000000000000000e+00   0.0000000000000000e+00   0.0000000000000000e+00   0.0000000000000000e+00   0.0000000000000000e+00   0.0000000000000000e+00   0.0000000000000000e+00   0.0000000000000000e+00   0.0000000000000000e+00   0.0000000000000000e+00   0.0000000000000000e+00   0.0000000000000000e+00   0.0000000000000000e+00   0.0000000000000000e+00   0.0000000000000000e+00   0.0000000000000000e+00   0.0000000000000000e+00   0.0000000000000000e+00   0.0000000000000000e+00   2.2725819252876461e-02   1.2121475330261705e-02   5.8491828673887566e-02   5.3115823954046001e-02   9.7027436395407410e-02   9.8946747578401412e-02   1.3373341083635454e-01   1.4411114288668395e-01   1.6479731565121217e-01   1.8354179357720179e-01   1.8796893307580492e-01   2.1403120220991734e-01   2.0232833987210991e-01   2.3421225409825155e-01   2.0768182913968136e-01   2.4379443670929196e-01   2.0577400940471496e-01   2.4290119604881200e-01   1.9856623962422826e-01   2.3826532666392894e-01   1.7934594540317059e-01   2.2083489336573003e-01   1.4511929448242389e-01   1.8675292984455175e-01   9.5822397046886484e-02   1.3413070407546243e-01   4.0567300252775031e-02   6.9269367587378020e-02   3.7080281584170845e-03   1.4559059385949310e-02   1.0183749210807087e-01   3.3139740147535762e-02   3.2771065378964193e-01   2.6177853712861682e-01   4.4158795486257013e-01   4.2092363598526866e-01   4.7615815457369298e-01   4.7811461981652997e-01   4.7294312615637935e-01   4.8902782007585116e-01   4.4171667832658040e-01   4.6971644480183705e-01   3.8548208064398176e-01   4.2387998210917632e-01   3.1181577714041980e-01   3.5586582220860175e-01   2.3499142267396775e-01   2.7785536353784762e-01   1.6832926738761128e-01   2.0469106299026285e-01   1.1822239072595692e-01   1.4623263132045944e-01   8.4224366331812781e-02   1.0468667173643434e-01   6.2958799442476454e-02   7.7766054616274616e-02   4.9936418562516377e-02   6.1071600131243402e-02   4.2137139153