<?xml version="1.0"?>
<VTKFile type="UnstructuredGrid"  version="0.1"  >
<UnstructuredGrid>
<Piece  NumberOfPoints="16641" NumberOfCells="32768">
<Points>
<DataArray  type="Float64"  NumberOfComponents="3"  format="ascii">0 0 0  0.0078125 0 0  0.015625 0 0  0.0234375 0 0  0.03125 0 0  0.0390625 0 0  0.046875 0 0  0.0546875 0 0  0.0625 0 0  0.0703125 0 0  0.078125 0 0  0.0859375 0 0  0.09375 0 0  0.1015625 0 0  0.109375 0 0  0.1171875 0 0  0.125 0 0  0.1328125 0 0  0.140625 0 0  0.1484375 0 0  0.15625 0 0  0.1640625 0 0  0.171875 0 0  0.1796875 0 0  0.1875 0 0  0.1953125 0 0  0.203125 0 0  0.2109375 0 0  0.21875 0 0  0.2265625 0 0  0.234375 0 0  0.2421875 0 0  0.25 0 0  0.2578125 0 0  0.265625 0 0  0.2734375 0 0  0.28125 0 0  0.2890625 0 0  0.296875 0 0  0.3046875 0 0  0.3125 0 0  0.3203125 0 0  0.328125 0 0  0.3359375 0 0  0.34375 0 0  0.3515625 0 0  0.359375 0 0  0.3671875 0 0  0.375 0 0  0.3828125 0 0  0.390625 0 0  0.3984375 0 0  0.40625 0 0  0.4140625 0 0  0.421875 0 0  0.4296875 0 0  0.4375 0 0  0.4453125 0 0  0.453125 0 0  0.4609375 0 0  0.46875 0 0  0.4765625 0 0  0.484375 0 0  0.4921875 0 0  0.5 0 0  0.5078125 0 0  0.515625 0 0  0.5234375 0 0  0.53125 0 0  0.5390625 0 0  0.546875 0 0  0.5546875 0 0  0.5625 0 0  0.5703125 0 0  0.578125 0 0  0.5859375 0 0  0.59375 0 0  0.6015625 0 0  0.609375 0 0  0.6171875 0 0  0.625 0 0  0.6328125 0 0  0.640625 0 0  0.6484375 0 0  0.65625 0 0  0.6640625 0 0  0.671875 0 0  0.6796875 0 0  0.6875 0 0  0.6953125 0 0  0.703125 0 0  0.7109375 0 0  0.71875 0 0  0.7265625 0 0  0.734375 0 0  0.7421875 0 0  0.75 0 0  0.7578125 0 0  0.765625 0 0  0.7734375 0 0  0.78125 0 0  0.7890625 0 0  0.796875 0 0  0.8046875 0 0  0.8125 0 0  0.8203125 0 0  0.828125 0 0  0.8359375 0 0  0.84375 0 0  0.8515625 0 0  0.859375 0 0  0.8671875 0 0  0.875 0 0  0.8828125 0 0  0.890625 0 0  0.8984375 0 0  0.90625 0 0  0.9140625 0 0  0.921875 0 0  0.9296875 0 0  0.9375 0 0  0.9453125 0 0  0.953125 0 0  0.9609375 0 0  0.96875 0 0  0.9765625 0 0  0.984375 0 0  0.9921875 0 0  1 0 0  0 0.0078125 0  0.0078125 0.0078125 0  0.015625 0.0078125 0  0.0234375 0.0078125 0  0.03125 0.0078125 0  0.0390625 0.0078125 0  0.046875 0.0078125 0  0.0546875 0.0078125 0  0.0625 0.0078125 0  0.0703125 0.0078125 0  0.078125 0.0078125 0  0.0859375 0.0078125 0  0.09375 0.0078125 0  0.1015625 0.0078125 0  0.109375 0.0078125 0  0.1171875 0.0078125 0  0.125 0.0078125 0  0.1328125 0.0078125 0  0.140625 0.0078125 0  0.1484375 0.0078125 0  0.15625 0.0078125 0  0.1640625 0.0078125 0  0.171875 0.0078125 0  0.1796875 0.0078125 0  0.1875 0.0078125 0  0.1953125 0.0078125 0  0.203125 0.0078125 0  0.2109375 0.0078125 0  0.21875 0.0078125 0  0.2265625 0.0078125 0  0.234375 0.0078125 0  0.2421875 0.0078125 0  0.25 0.0078125 0  0.2578125 0.0078125 0  0.265625 0.0078125 0  0.2734375 0.0078125 0  0.28125 0.0078125 0  0.2890625 0.0078125 0  0.296875 0.0078125 0  0.3046875 0.0078125 0  0.3125 0.0078125 0  0.3203125 0.0078125 0  0.328125 0.0078125 0  0.3359375 0.0078125 0  0.34375 0.0078125 0  0.3515625 0.0078125 0  0.359375 0.0078125 0  0.3671875 0.0078125 0  0.375 0.0078125 0  0.3828125 0.0078125 0  0.390625 0.0078125 0  0.3984375 0.0078125 0  0.40625 0.0078125 0  0.4140625 0.0078125 0  0.421875 0.0078125 0  0.4296875 0.0078125 0  0.4375 0.0078125 0  0.4453125 0.0078125 0  0.453125 0.0078125 0  0.4609375 0.0078125 0  0.46875 0.0078125 0  0.4765625 0.0078125 0  0.484375 0.0078125 0  0.4921875 0.0078125 0  0.5 0.0078125 0  0.5078125 0.0078125 0  0.515625 0.0078125 0  0.5234375 0.0078125 0  0.53125 0.0078125 0  0.5390625 0.0078125 0  0.546875 0.0078125 0  0.5546875 0.0078125 0  0.5625 0.0078125 0  0.5703125 0.0078125 0  0.578125 0.0078125 0  0.5859375 0.0078125 0  0.59375 0.0078125 0  0.6015625 0.0078125 0  0.609375 0.0078125 0  0.6171875 0.0078125 0  0.625 0.0078125 0  0.6328125 0.0078125 0  0.640625 0.0078125 0  0.6484375 0.0078125 0  0.65625 0.0078125 0  0.6640625 0.0078125 0  0.671875 0.0078125 0  0.6796875 0.0078125 0  0.6875 0.0078125 0  0.6953125 0.0078125 0  0.703125 0.0078125 0  0.7109375 0.0078125 0  0.71875 0.0078125 0  0.7265625 0.0078125 0  0.734375 0.0078125 0  0.7421875 0.0078125 0  0.75 0.0078125 0  0.7578125 0.0078125 0  0.765625 0.0078125 0  0.7734375 0.0078125 0  0.78125 0.0078125 0  0.7890625 0.0078125 0  0.796875 0.0078125 0  0.8046875 0.0078125 0  0.8125 0.0078125 0  0.8203125 0.0078125 0  0.828125 0.0078125 0  0.8359375 0.0078125 0  0.84375 0.0078125 0  0.8515625 0.0078125 0  0.859375 0.0078125 0  0.8671875 0.0078125 0  0.875 0.0078125 0  0.8828125 0.0078125 0  0.890625 0.0078125 0  0.8984375 0.0078125 0  0.90625 0.0078125 0  0.9140625 0.0078125 0  0.921875 0.0078125 0  0.9296875 0.0078125 0  0.9375 0.0078125 0  0.9453125 0.0078125 0  0.953125 0.0078125 0  0.9609375 0.0078125 0  0.96875 0.0078125 0  0.9765625 0.0078125 0  0.984375 0.0078125 0  0.9921875 0.0078125 0  1 0.0078125 0  0 0.015625 0  0.0078125 0.015625 0  0.015625 0.015625 0  0.0234375 0.015625 0  0.03125 0.015625 0  0.0390625 0.015625 0  0.046875 0.015625 0  0.0546875 0.015625 0  0.0625 0.015625 0  0.0703125 0.015625 0  0.078125 0.015625 0  0.0859375 0.015625 0  0.09375 0.015625 0  0.1015625 0.015625 0  0.109375 0.015625 0  0.1171875 0.015625 0  0.125 0.015625 0  0.1328125 0.015625 0  0.140625 0.015625 0  0.1484375 0.015625 0  0.15625 0.015625 0  0.1640625 0.015625 0  0.171875 0.015625 0  0.1796875 0.015625 0  0.1875 0.015625 0  0.1953125 0.015625 0  0.203125 0.015625 0  0.2109375 0.015625 0  0.21875 0.015625 0  0.2265625 0.015625 0  0.234375 0.015625 0  0.2421875 0.015625 0  0.25 0.015625 0  0.2578125 0.015625 0  0.265625 0.015625 0  0.2734375 0.015625 0  0.28125 0.015625 0  0.2890625 0.015625 0  0.296875 0.015625 0  0.3046875 0.015625 0  0.3125 0.015625 0  0.3203125 0.015625 0  0.328125 0.015625 0  0.3359375 0.015625 0  0.34375 0.015625 0  0.3515625 0.015625 0  0.359375 0.015625 0  0.3671875 0.015625 0  0.375 0.015625 0  0.3828125 0.015625 0  0.390625 0.015625 0  0.3984375 0.015625 0  0.40625 0.015625 0  0.4140625 0.015625 0  0.421875 0.015625 0  0.4296875 0.015625 0  0.4375 0.015625 0  0.4453125 0.015625 0  0.453125 0.015625 0  0.4609375 0.015625 0  0.46875 0.015625 0  0.4765625 0.015625 0  0.484375 0.015625 0  0.4921875 0.015625 0  0.5 0.015625 0  0.5078125 0.015625 0  0.515625 0.015625 0  0.5234375 0.015625 0  0.53125 0.015625 0  0.5390625 0.015625 0  0.546875 0.015625 0  0.5546875 0.015625 0  0.5625 0.015625 0  0.5703125 0.015625 0  0.578125 0.015625 0  0.5859375 0.015625 0  0.59375 0.015625 0  0.6015625 0.015625 0  0.609375 0.015625 0  0.6171875 0.015625 0  0.625 0.015625 0  0.6328125 0.015625 0  0.640625 0.015625 0  0.6484375 0.015625 0  0.65625 0.015625 0  0.6640625 0.015625 0  0.671875 0.015625 0  0.6796875 0.015625 0  0.6875 0.015625 0  0.6953125 0.015625 0  0.703125 0.015625 0  0.7109375 0.015625 0  0.71875 0.015625 0  0.7265625 0.015625 0  0.734375 0.015625 0  0.7421875 0.015625 0  0.75 0.015625 0  0.7578125 0.015625 0  0.765625 0.015625 0  0.7734375 0.015625 0  0.78125 0.015625 0  0.7890625 0.015625 0  0.796875 0.015625 0  0.8046875 0.015625 0  0.8125 0.015625 0  0.8203125 0.015625 0  0.828125 0.015625 0  0.8359375 0.015625 0  0.84375 0.015625 0  0.8515625 0.015625 0  0.859375 0.015625 0  0.8671875 0.015625 0  0.875 0.015625 0  0.8828125 0.015625 0  0.890625 0.015625 0  0.8984375 0.015625 0  0.90625 0.015625 0  0.9140625 0.015625 0  0.921875 0.015625 0  0.9296875 0.015625 0  0.9375 0.015625 0  0.9453125 0.015625 0  0.953125 0.015625 0  0.9609375 0.015625 0  0.96875 0.015625 0  0.9765625 0.015625 0  0.984375 0.015625 0  0.9921875 0.015625 0  1 0.015625 0  0 0.0234375 0  0.0078125 0.0234375 0  0.015625 0.0234375 0  0.0234375 0.0234375 0  0.03125 0.0234375 0  0.0390625 0.0234375 0  0.046875 0.0234375 0  0.0546875 0.0234375 0  0.0625 0.0234375 0  0.0703125 0.0234375 0  0.078125 0.0234375 0  0.0859375 0.0234375 0  0.09375 0.0234375 0  0.1015625 0.0234375 0  0.109375 0.0234375 0  0.1171875 0.0234375 0  0.125 0.0234375 0  0.1328125 0.0234375 0  0.140625 0.0234375 0  0.1484375 0.0234375 0  0.15625 0.0234375 0  0.1640625 0.0234375 0  0.171875 0.0234375 0  0.1796875 0.0234375 0  0.1875 0.0234375 0  0.1953125 0.0234375 0  0.203125 0.0234375 0  0.2109375 0.0234375 0  0.21875 0.0234375 0  0.2265625 0.0234375 0  0.234375 0.0234375 0  0.2421875 0.0234375 0  0.25 0.0234375 0  0.2578125 0.0234375 0  0.265625 0.0234375 0  0.2734375 0.0234375 0  0.28125 0.0234375 0  0.2890625 0.0234375 0  0.296875 0.0234375 0  0.3046875 0.0234375 0  0.3125 0.0234375 0  0.3203125 0.0234375 0  0.328125 0.0234375 0  0.3359375 0.0234375 0  0.34375 0.0234375 0  0.3515625 0.0234375 0  0.359375 0.0234375 0  0.3671875 0.0234375 0  0.375 0.0234375 0  0.3828125 0.0234375 0  0.390625 0.0234375 0  0.3984375 0.0234375 0  0.40625 0.0234375 0  0.4140625 0.0234375 0  0.421875 0.0234375 0  0.4296875 0.0234375 0  0.4375 0.0234375 0  0.4453125 0.0234375 0  0.453125 0.0234375 0  0.4609375 0.0234375 0  0.46875 0.0234375 0  0.4765625 0.0234375 0  0.484375 0.0234375 0  0.4921875 0.0234375 0  0.5 0.0234375 0  0.5078125 0.0234375 0  0.515625 0.0234375 0  0.5234375 0.0234375 0  0.53125 0.0234375 0  0.5390625 0.0234375 0  0.546875 0.0234375 0  0.5546875 0.0234375 0  0.5625 0.0234375 0  0.5703125 0.0234375 0  0.578125 0.0234375 0  0.5859375 0.0234375 0  0.59375 0.0234375 0  0.6015625 0.0234375 0  0.609375 0.0234375 0  0.6171875 0.0234375 0  0.625 0.0234375 0  0.6328125 0.0234375 0  0.640625 0.0234375 0  0.6484375 0.0234375 0  0.65625 0.0234375 0  0.6640625 0.0234375 0  0.671875 0.0234375 0  0.6796875 0.0234375 0  0.6875 0.0234375 0  0.6953125 0.0234375 0  0.703125 0.0234375 0  0.7109375 0.0234375 0  0.71875 0.0234375 0  0.7265625 0.0234375 0  0.734375 0.0234375 0  0.7421875 0.0234375 0  0.75 0.0234375 0  0.7578125 0.0234375 0  0.765625 0.0234375 0  0.7734375 0.0234375 0  0.78125 0.0234375 0  0.7890625 0.0234375 0  0.796875 0.0234375 0  0.8046875 0.0234375 0  0.8125 0.0234375 0  0.8203125 0.0234375 0  0.828125 0.0234375 0  0.8359375 0.0234375 0  0.84375 0.0234375 0  0.8515625 0.0234375 0  0.859375 0.0234375 0  0.8671
[...]
<CellData  Scalars="f_2820"> 
<DataArray  type="Float64"  Name="f_2820"  format="ascii">4.0434998941910966e-04   4.0357753728118451e-04   1.1820724552890779e-03   2.2761020720960252e-03   1.9252346156164856e-03   4.6144386602692752e-03   2.4430419787909931e-03   6.5393942503407078e-03   2.6798934945510048e-03   7.6902065514024634e-03   2.6607344590854221e-03   8.0256067502908965e-03   2.4504621084755051e-03   7.6835007636627678e-03   2.1251265122088532e-03   6.8778077573829243e-03   1.7537429726509658e-03   5.8282077312179111e-03   1.3889485348520265e-03   4.7188095984234723e-03   1.0643269415480622e-03   3.6800507903901446e-03   7.9614374512101645e-04   2.7872836673735295e-03   5.8794819558631941e-04   2.0695591808532368e-03   4.3518680266736715e-04   1.5283281190918996e-03   3.2715471626967808e-04   1.1367358453864558e-03   2.7297994916745342e-04   8.9532130874916082e-04   2.4904107530219615e-04   7.9093941501763316e-04   2.3720670839345564e-04   7.3703897751664421e-04   2.3053594327748916e-04   7.0851246487893364e-04   2.2482064203171900e-04   6.8859436062370250e-04   2.1863934755650381e-04   6.7041056306031937e-04   2.1135655568112771e-04   6.4806965191953770e-04   2.0453762148146294e-04   6.2817012825002946e-04   1.9719182295127772e-04   6.0622572528902204e-04   1.9015102847664130e-04   5.8412682154086455e-04   1.8426761419791234e-04   5.6441420964112841e-04   1.8032996430098475e-04   5.4954928088323180e-04   1.7904747071104915e-04   5.4177088456525916e-04   1.8108175839249820e-04   5.4312456641720695e-04   1.8710449120050887e-04   5.5559949609775288e-04   1.9786709361307807e-04   5.8132154759289842e-04   2.1427366329861559e-04   6.2276753607656507e-04   2.3745475532007575e-04   6.8298429699486846e-04   2.6902384009012330e-04   7.6612447306422004e-04   3.1067343952699339e-04   8.7711631178279039e-04   3.6468628958662120e-04   1.0218315465460844e-03   4.3397457077280489e-04   1.2081016802223731e-03   5.2211421185052514e-04   1.4456308409773935e-03   6.3347570390173615e-04   1.7463389397801767e-03   7.7267007232892078e-04   2.1235967051911643e-03   9.4550310919989445e-04   2.5912812659962818e-03   1.1615540440719754e-03   3.1830171172631777e-03   1.4126401823084491e-03   3.8835363864234375e-03   1.6964497279625880e-03   4.6850371704394937e-03   2.0045446321703166e-03   5.5709848727691922e-03   2.3200188661486741e-03   6.5038008234511108e-03   2.6165674065776173e-03   7.4170512212277887e-03   2.8610959315860081e-03   8.2214800312132921e-03   3.0185298194750705e-03   8.8143635623676355e-03   3.0595119146793310e-03   9.0990484682037919e-03   2.9686033617693950e-03   9.0091092829650936e-03   2.7499583032675589e-03   8.5292698188722902e-03   2.4278468769277830e-03   7.7044444829348514e-03   2.0413062698010523e-03   6.6318869773955421e-03   1.6347408166930669e-03   5.4383295501574435e-03   1.2480302493546017e-03   4.2505375665073631e-03   9.0945578047082099e-04   3.1698197324450542e-03   6.3330541359527350e-04   2.2582143217150818e-03   4.2151577396561384e-04   1.5380616494126927e-03   2.6757779652490838e-04   1.0008051003388579e-03   1.6080456581154924e-04   6.1955543523255056e-04   8.9681753282636907e-05   3.6053318399835400e-04   4.3892695481336278e-05   1.9098447032195282e-04   1.5184028184746519e-05   8.3333549071601143e-05   0.0000000000000000e+00   1.6340705717943115e-05   0.0000000000000000e+00   0.0000000000000000e+00   0.0000000000000000e+00   0.0000000000000000e+00   0.0000000000000000e+00   0.0000000000000000e+00   0.0000000000000000e+00   0.0000000000000000e+00   0.0000000000000000e+00   0.0000000000000000e+00   0.0000000000000000e+00   0.0000000000000000e+00   0.0000000000000000e+00   0.0000000000000000e+00   0.0000000000000000e+00   0.0000000000000000e+00   0.0000000000000000e+00   0.0000000000000000e+00   0.0000000000000000e+00   0.0000000000000000e+00   0.0000000000000000e+00   0.0000000000000000e+00   0.0000000000000000e+00   0.0000000000000000e+00   0.0000000000000000e+00   0.0000000000000000e+00   0.0000000000000000e+00   0.0000000000000000e+00   0.0000000000000000e+00   0.0000000000000000e+00   0.0000000000000000e+00   0.0000000000000000e+00   0.0000000000000000e+00   0.0000000000000000e+00   0.0000000000000000e+00   0.0000000000000000e+00   0.0000000000000000e+00   0.0000000000000000e+00   0.0000000000000000e+00   0.0000000000000000e+00   0.0000000000000000e+00   0.0000000000000000e+00   0.0000000000000000e+00   0.0000000000000000e+00   0.0000000000000000e+00   0.0000000000000000e+00   0.0000000000000000e+00   0.0000000000000000e+00   0.0000000000000000e+00   0.0000000000000000e+00   0.0000000000000000e+00   0.0000000000000000e+00   0.0000000000000000e+00   0.0000000000000000e+00   0.0000000000000000e+00   0.0000000000000000e+00   0.0000000000000000e+00   0.0000000000000000e+00   0.0000000000000000e+00   0.0000000000000000e+00   0.0000000000000000e+00   0.0000000000000000e+00   0.0000000000000000e+00   0.0000000000000000e+00   0.0000000000000000e+00   0.0000000000000000e+00   0.0000000000000000e+00   0.0000000000000000e+00   0.0000000000000000e+00   0.0000000000000000e+00   0.0000000000000000e+00   0.0000000000000000e+00   0.0000000000000000e+00   0.0000000000000000e+00   0.0000000000000000e+00   0.0000000000000000e+00   0.0000000000000000e+00   0.0000000000000000e+00   0.0000000000000000e+00   0.0000000000000000e+00   0.0000000000000000e+00   0.0000000000000000e+00   0.0000000000000000e+00   0.0000000000000000e+00   0.0000000000000000e+00   0.0000000000000000e+00   0.0000000000000000e+00   0.0000000000000000e+00   0.0000000000000000e+00   0.0000000000000000e+00   0.0000000000000000e+00   0.0000000000000000e+00   0.0000000000000000e+00   0.0000000000000000e+00   0.0000000000000000e+00   0.0000000000000000e+00   0.0000000000000000e+00   0.0000000000000000e+00   0.0000000000000000e+00   0.0000000000000000e+00   0.0000000000000000e+00   0.0000000000000000e+00   0.0000000000000000e+00   0.0000000000000000e+00   0.0000000000000000e+00   0.0000000000000000e+00   0.0000000000000000e+00   0.0000000000000000e+00   0.0000000000000000e+00   0.0000000000000000e+00   0.0000000000000000e+00   0.0000000000000000e+00   0.0000000000000000e+00   0.0000000000000000e+00   0.0000000000000000e+00   0.0000000000000000e+00   0.0000000000000000e+00   0.0000000000000000e+00   0.0000000000000000e+00   0.0000000000000000e+00   0.0000000000000000e+00   0.0000000000000000e+00   0.0000000000000000e+00   0.0000000000000000e+00   0.0000000000000000e+00   0.0000000000000000e+00   2.2344254197981775e-03   1.1455757900934098e-03   9.0248515755885095e-03   8.9334190324816664e-03   1.6507940746923831e-02   1.9761197600671656e-02   2.2294063026479058e-02   2.9247007076748051e-02   2.5470133929944565e-02   3.5338759102630062e-02   2.6054142215009079e-02   3.7595242397537469e-02   2.4570317145791692e-02   3.6533136502165720e-02   2.1734810753073881e-02   3.3111346036190578e-02   1.8246696537864190e-02   2.8369247851845809e-02   1.4670485486357361e-02   2.3206914040875930e-02   1.1390498298869574e-02   1.8281416397932081e-02   8.6153545902772129e-03   1.3988169621474497e-02   6.4169758277083265e-03   1.0496016173584567e-02   4.7751182130631930e-03   7.8366419038483157e-03   3.5958390707651810e-03   5.8939175173872730e-03   2.9836111317379141e-03   4.6868093457716605e-03   2.7014452484545831e-03   4.1781945079199054e-03   2.5589052849794873e-03   3.9167265690686444e-03   2.4803313971390891e-03   3.7832027698801308e-03   2.4218317787208618e-03   3.6956849280123101e-03   2.3592098913464265e-03   3.6109763154999501e-03   2.2857349399306179e-03   3.5033456119866191e-03   2.2175716211967336e-03   3.4068601657313759e-03   2.1429259655164324e-03   3.3002271463445356e-03   2.0702509560767126e-03   3.1918316645707847e-03   2.0085749053731878e-03   3.0952644497408005e-03   1.9664428557661503e-03   3.0238304606695532e-03   1.9516221973828621e-03   2.9897516699956138e-03   1.9713348494880619e-03   3.0042739123123945e-03   2.0328068286059806e-03   3.0783517485088118e-03   2.1439724185617877e-03   3.2236435529966038e-03   2.3142285442612140e-03   3.4536288105768932e-03   2.5551998495156459e-03   3.7847533961565798e-03   2.8833334750749586e-03   4.2389858862902259e-03   3.3160166118544544e-03   4.8432679606181849e-03   3.8761169418229315e-03   5.6281575664539757e-03   4.5929536634589773e-03   6.6347808794204521e-03   5.5024410385715716e-03   7.9137843735909829e-03   6.6485488797345914e-03   9.5270814550059042e-03   8.0776299872971219e-03   1.1543700292890792e-02   9.8532488992457527e-03   1.4034622850257411e-02   1.2070126450368087e-02   1.7184323907871786e-02   1.4645257881661218e-02   2.0892912242946680e-02   1.7559185119529589e-02   2.5125182555520615e-02   2.0733637052835516e-02   2.9794012008179962e-02   2.4006782856556736e-02   3.4704713345617991e-02   2.7121574906969911e-02   3.9514495921562899e-02   2.9748161388999037e-02   4.3763083215561882e-02   3.1527334109760781e-02   4.6918513671229033e-02   3.2144692641322997e-02   4.8475190351496104e-02   3.1414094670838763e-02   4.8076971394093580e-02   2.9341436218917806e-02   4.5626832280407106e-02   2.6140882852846627e-02   4.1339166516120143e-02   2.2191725511354139e-02   3.5706777647179937e-02   1.7948854395125936e-02   2.9388184123276640e-02   1.3840106315263891e-02   2.3055460440082314e-02   1.0185535767174547e-02   1.7256893790192213e-02   7.1626088388575884e-03   1.2337837106501753e-02   4.8151073361306744e-03   8.4322609444716368e-03   3.0899095675572990e-03   5.5056289252340251e-03   1.8816032217688387e-03   3.4206452956729474e-03   1.0698290352263713e-03   1.9990473300467528e-03   5.4329316608156390e-04   1.0653586487999983e-03   2.1114296042893540e-04   4.7053945736545894e-04   4.7038034955522945e-06   9.8966522912829913e-05   0.0000000000000000e+00   0.0000000000000000e+00   0.0000000000000000e+00   0.0000000000000000e+00   0.0000000000000000e+00   0.0000000000000000e+00   0.0000000000000000e+00   0.0000000000000000e+00   0.0000000000000000e+00   0.0000000000000000e+00   0.0000000000000000e+00   0.0000000000000000e+00   0.0000000000000000e+00   0.0000000000000000e+00   0.0000000000000000e+00   0.0000000000000000e+00   0.0000000000000000e+00   0.0000000000000000e+00   0.0000000000000000e+00   0.0000000000000000e+00   0.0000000000000000e+00   0.0000000000000000e+00   0.0000000000000000e+00   0.0000000000000000e+00   0.0000000000000000e+00   0.0000000000000000e+00   0.0000000000000000e+00   0.0000000000000000e+00   0.0000000000000000e+00   0.0000000000000000e+00   0.0000000000000000e+00   0.0000000000000000e+00   0.0000000000000000e+00   0.0000000000000000e+00   0.0000000000000000e+00   0.0000000000000000e+00   0.0000000000000000e+00   0.0000000000000000e+00   0.0000000000000000e+00   0.0000000000000000e+00   0.0000000000000000e+00   0.0000000000000000e+00   0.0000000000000000e+00   0.0000000000000000e+00   0.0000000000000000e+00   0.0000000000000000e+00   0.0000000000000000e+00   0.0000000000000000e+00   0.0000000000000000e+00   0.0000000000000000e+00   0.0000000000000000e+00   0.0000000000000000e+00   0.0000000000000000e+00   0.0000000000000000e+00   0.0000000000000000e+00   0.0000000000000000e+00   0.0000000000000000e+00   0.0000000000000000e+00   0.0000000000000000e+00   0.0000000000000000e+00   0.0000000000000000e+00   0.0000000000000000e+00   0.0000000000000000e+00   0.0000000000000000e+00   0.0000000000000000e+00   0.0000000000000000e+00   0.0000000000000000e+00   0.0000000000000000e+00   0.0000000000000000e+00   0.0000000000000000e+00   0.0000000000000000e+00   0.0000000000000000e+00   0.0000000000000000e+00   0.0000000000000000e+00   0.0000000000000000e+00   0.0000000000000000e+00   0.0000000000000000e+00   0.0000000000000000e+00   0.0000000000000000e+00   0.0000000000000000e+00   0.0000000000000000e+00   0.0000000000000000e+00   0.0000000000000000e+00   0.0000000000000000e+00   0.0000000000000000e+00   0.0000000000000000e+00   0.0000000000000000e+00   0.0000000000000000e+00   0.0000000000000000e+00   0.0000000000000000e+00   0.0000000000000000e+00   0.0000000000000000e+00   0.0000000000000000e+00   0.0000000000000000e+00   0.0000000000000000e+00   0.0000000000000000e+00   0.0000000000000000e+00   0.0000000000000000e+00   0.0000000000000000e+00   0.0000000000000000e+00   0.0000000000000000e+00   0.0000000000000000e+00   0.0000000000000000e+00   0.0000000000000000e+00   0.0000000000000000e+00   0.0000000000000000e+00   0.0000000000000000e+00   0.0000000000000000e+00   0.0000000000000000e+00   0.0000000000000000e+00   0.0000000000000000e+00   0.0000000000000000e+00   0.0000000000000000e+00   0.0000000000000000e+00   0.0000000000000000e+00   0.0000000000000000e+00   0.0000000000000000e+00   0.0000000000000000e+00   0.0000000000000000e+00   0.0000000000000000e+00   0.0000000000000000e+00   0.0000000000000000e+00   0.0000000000000000e+00   0.0000000000000000e+00   0.0000000000000000e+00   0.0000000000000000e+00   4.3523503485435279e-03   1.7775981643701720e-03   1.9191805073057486e-02   1.5599985911033594e-02   3.6709600172656710e-02   3.6095176947282807e-02   5.0979446873856783e-02   5.4883092910540165e-02   5.9392544856585731e-02   6.7572239578498131e-02   6.1672855356299121e-02   7.2927879395449549e-02   5.8890217803767103e-02   7.1719458888555729e-02   5.2678116810031754e-02   6.5703782791266596e-02   4.4697974796133091e-02   5.6881418020321997e-02   3.6328098028950560e-02   4.7031943205435384e-02   2.8532037259573911e-02   3.7483901540493997e-02   2.1854279392321870e-02   2.9059604043094312e-02   1.6506554880381184e-02   2.2132727848900243e-02   1.2475543818893726e-02   1.6809649052685893e-02   9.5484948073535688e-03   1.2880492464993667e-02   8.0421171718810715e-03   1.0422605333015303e-02   7.3844046297857962e-03   9.4652373300540826e-03   7.0616798960115544e-03   8.9933519476961144e-03   6.8945624775971683e-03   8.7665379016159360e-03   6.7660559817975400e-03   8.6186659137979984e-03   6.6210672658682836e-03   8.4643443025075385e-03   6.4394655109430597e-03   8.2526920550818998e-03   6.2778694663536997e-03   8.0608973433170007e-03   6.0977472508066599e-03   7.8528691803386782e-03   5.9225272604227514e-03   7.6408187290132826e-03   5.7772897303924597e-03   7.4562421616291598e-03   5.6859894905118462e-03   7.3301242162582903e-03   5.6706714475328879e-03   7.2912552311430578e-03   5.7520867968442174e-03   7.3665171845472581e-03   5.9511697282345682e-03   7.5824490594749525e-03   6.2909427304564149e-03   7.9675083568060117e-03   6.7985664749199270e-03   8.5546106562629648e-03   7.5074198180098148e-03   9.3837323991636627e-03   8.4634925948045090e-03   1.0506355165197941e-02   9.7179685110820400e-03   1.1990406733651470e-02   1.1333855989935760e-02   1.3906569537849611e-02   1.3392777873367302e-02   1.6351705284746287e-02   1.5993863547906158e-02   1.9444001304931808e-02   1.9257580148004091e-02   2.3326578895686460e-02   2.3309149302981006e-02   2.8157302213284663e-02   2.8343008890928782e-02   3.4095068874618384e-02   3.4564729769507266e-02   4.1590772155014243e-02   4.1763047464552214e-02   5.0335035246063808e-02   4.9872184688212827e-02   6.0266071940683494e-02   5.8665958045477612e-02   7.1163812720165545e-02   6.7691789450237086e-02   8.2561186107994039e-02   7.6243979135489179e-02   9.3659215721929298e-02   8.3425229370668375e-02   1.0339956576087810e-01   8.8263376014631620e-02   1.1057055944431642e-01   8.9908200653732784e-02   1.1402728791326391e-01   8.7852806745867054e-02   1.1296549449187072e-01   8.2105206731634295e-02   1.0716628619342455e-01   7.3236993790501664e-02   9.7116319502011272e-02   6.2274813664376906e-02   8.3939909262568210e-02   5.0463966372031689e-02   6.9150279038906054e-02   3.8989619201602446e-02   5.4304976666382433e-02   2.8750264477381014e-02   4.0686505815953539e-02   2.0254481598990348e-02   2.9112353140221557e-02   1.3638424767919590e-02   1.9907696394334609e-02   8.7639965530958569e-03   1.3000526839568103e-02   5.3421425463801219e-03   8.0737194645758969e-03   3.0380284532562024e-03   4.7104372319564649e-03   1.5397688527140543e-03   2.4981361638363423e-03   5.9140608397316820e-04   1.0855612468100480e-03   0.0000000000000000e+00   1.9912453055155257e-04   0.0000000000000000e+00   0.0000000000000000e+00   0.0000000000000000e+00   0.0000000000000000e+00   0.0000000000000000e+00   0.0000000000000000e+00   0.0000000000000000e+00   0.0000000000000000e+00   0.0000000000000000e+00   0.0000000000000000e+00   0.0000000000000000e+00   0.0000000000000000e+00   0.0000000000000000e+00   0.0000000000000000e+00   0.0000000000000000e+00   0.0000000000000000e+00   0.0000000000000000e+00   0.0000000000000000e+00   0.0000000000000000e+00   0.0000000000000000e+00   0.0000000000000000e+00   0.0000000000000000e+00   0.0000000000000000e+00   0.0000000000000000e+00   0.0000000000000000e+00   0.0000000000000000e+00   0.0000000000000000e+00   0.0000000000000000e+00   0.0000000000000000e+00   0.0000000000000000e+00   0.0000000000000000e+00   0.0000000000000000e+00   0.0000000000000000e+00   0.0000000000000000e+00   0.0000000000000000e+00   0.0000000000000000e+00   0.0000000000000000e+00   0.0000000000000000e+00   0.0000000000000000e+00   0.0000000000000000e+00   0.0000000000000000e+00   0.0000000000000000e+00   0.0000000000000000e+00   0.0000000000000000e+00   0.0000000000000000e+00   0.0000000000000000e+00   0.0000000000000000e+00   0.0000000000000000e+00   0.0000000000000000e+00   0.0000000000000000e+00   0.0000000000000000e+00   0.0000000000000000e+00   0.0000000000000000e+00   0.0000000000000000e+00   0.0000000000000000e+00   0.0000000000000000e+00   0.0000000000000000e+00   0.0000000000000000e+00   0.0000000000000000e+00   0.0000000000000000e+00   0.0000000000000000e+00   0.0000000000000000e+00   0.0000000000000000e+00   0.0000000000000000e+00   0.0000000000000000e+00   0.0000000000000000e+00   0.0000000000000000e+00   0.0000000000000000e+00   0.0000000000000000e+00   0.0000000000000000e+00   0.0000000000000000e+00   0.0000000000000000e+00   0.0000000000000000e+00   0.0000000000000000e+00   0.0000000000000000e+00   0.0000000000000000e+00   0.0000000000000000e+00   0.0000000000000000e+00   0.0000000000000000e+00   0.0000000000000000e+00   0.0000000000000000e+00   0.0000000000000000e+00   0.0000000000000000e+00   0.0000000000000000e+00   0.0000000000000000e+00   0.0000000000000000e+00   0.0000000000000000e+00   0.0000000000000000e+00   0.0000000000000000e+00   0.0000000000000000e+00   0.0000000000000000e+00   0.0000000000000000e+00   0.0000000000000000e+00   0.0000000000000000e+00   0.0000000000000000e+00   0.0000000000000000e+00   0.0000000000000000e+00   0.0000000000000000e+00   0.0000000000000000e+00   0.0000000000000000e+00   0.0000000000000000e+00   0.0000000000000000e+00   0.0000000000000000e+00   0.0000000000000000e+00   0.0000000000000000e+00   0.0000000000000000e+00   0.0000000000000000e+00   0.0000000000000000e+00   0.0000000000000000e+00   0.0000000000000000e+00   0.0000000000000000e+00   0.0000000000000000e+00   0.0000000000000000e+00   0.0000000000000000e+00   0.0000000000000000e+00   0.0000000000000000e+00   0.0000000000000000e+00   0.0000000000000000e+00   0.0000000000000000e+00   0.0000000000000000e+00   0.0000000000000000e+00   0.0000000000000000e+00   0.0000000000000000e+00   0.0000000000000000e+00   0.0000000000000000e+00   0.0000000000000000e+00   5.8238174133371278e-03   2.1153767730584636e-03   2.6840441746480169e-02   1.9792306334959143e-02   5.2756143186936826e-02   4.7122147797237689e-02   7.4715856863412852e-02   7.3083868098919536e-02   8.8384811855856116e-02   9.1373336608495337e-02   9.2953226549399040e-02   9.9884598363081972e-02   8.9777787584908786e-02   9.9361110091824023e-02   8.1197180900638266e-02   9.2038636331294471e-02   6.9685723108492623e-02   8.0596917724464895e-02   5.7345803075002866e-02   6.7482265743329509e-02   4.5679672843380981e-02   5.4558347846055177e-02   3.5563036745368919e-02   4.3006876396425898e-02   2.7366106138890331e-02   3.3392146923486285e-02   2.1127094712023557e-02   2.5925922158810535e-02   1.6535220215