<?xml version="1.0"?>
<VTKFile type="UnstructuredGrid"  version="0.1"  >
<UnstructuredGrid>
<Piece  NumberOfPoints="16641" NumberOfCells="32768">
<Points>
<DataArray  type="Float64"  NumberOfComponents="3"  format="ascii">0 0 0  0.0078125 0 0  0.015625 0 0  0.0234375 0 0  0.03125 0 0  0.0390625 0 0  0.046875 0 0  0.0546875 0 0  0.0625 0 0  0.0703125 0 0  0.078125 0 0  0.0859375 0 0  0.09375 0 0  0.1015625 0 0  0.109375 0 0  0.1171875 0 0  0.125 0 0  0.1328125 0 0  0.140625 0 0  0.1484375 0 0  0.15625 0 0  0.1640625 0 0  0.171875 0 0  0.1796875 0 0  0.1875 0 0  0.1953125 0 0  0.203125 0 0  0.2109375 0 0  0.21875 0 0  0.2265625 0 0  0.234375 0 0  0.2421875 0 0  0.25 0 0  0.2578125 0 0  0.265625 0 0  0.2734375 0 0  0.28125 0 0  0.2890625 0 0  0.296875 0 0  0.3046875 0 0  0.3125 0 0  0.3203125 0 0  0.328125 0 0  0.3359375 0 0  0.34375 0 0  0.3515625 0 0  0.359375 0 0  0.3671875 0 0  0.375 0 0  0.3828125 0 0  0.390625 0 0  0.3984375 0 0  0.40625 0 0  0.4140625 0 0  0.421875 0 0  0.4296875 0 0  0.4375 0 0  0.4453125 0 0  0.453125 0 0  0.4609375 0 0  0.46875 0 0  0.4765625 0 0  0.484375 0 0  0.4921875 0 0  0.5 0 0  0.5078125 0 0  0.515625 0 0  0.5234375 0 0  0.53125 0 0  0.5390625 0 0  0.546875 0 0  0.5546875 0 0  0.5625 0 0  0.5703125 0 0  0.578125 0 0  0.5859375 0 0  0.59375 0 0  0.6015625 0 0  0.609375 0 0  0.6171875 0 0  0.625 0 0  0.6328125 0 0  0.640625 0 0  0.6484375 0 0  0.65625 0 0  0.6640625 0 0  0.671875 0 0  0.6796875 0 0  0.6875 0 0  0.6953125 0 0  0.703125 0 0  0.7109375 0 0  0.71875 0 0  0.7265625 0 0  0.734375 0 0  0.7421875 0 0  0.75 0 0  0.7578125 0 0  0.765625 0 0  0.7734375 0 0  0.78125 0 0  0.7890625 0 0  0.796875 0 0  0.8046875 0 0  0.8125 0 0  0.8203125 0 0  0.828125 0 0  0.8359375 0 0  0.84375 0 0  0.8515625 0 0  0.859375 0 0  0.8671875 0 0  0.875 0 0  0.8828125 0 0  0.890625 0 0  0.8984375 0 0  0.90625 0 0  0.9140625 0 0  0.921875 0 0  0.9296875 0 0  0.9375 0 0  0.9453125 0 0  0.953125 0 0  0.9609375 0 0  0.96875 0 0  0.9765625 0 0  0.984375 0 0  0.9921875 0 0  1 0 0  0 0.0078125 0  0.0078125 0.0078125 0  0.015625 0.0078125 0  0.0234375 0.0078125 0  0.03125 0.0078125 0  0.0390625 0.0078125 0  0.046875 0.0078125 0  0.0546875 0.0078125 0  0.0625 0.0078125 0  0.0703125 0.0078125 0  0.078125 0.0078125 0  0.0859375 0.0078125 0  0.09375 0.0078125 0  0.1015625 0.0078125 0  0.109375 0.0078125 0  0.1171875 0.0078125 0  0.125 0.0078125 0  0.1328125 0.0078125 0  0.140625 0.0078125 0  0.1484375 0.0078125 0  0.15625 0.0078125 0  0.1640625 0.0078125 0  0.171875 0.0078125 0  0.1796875 0.0078125 0  0.1875 0.0078125 0  0.1953125 0.0078125 0  0.203125 0.0078125 0  0.2109375 0.0078125 0  0.21875 0.0078125 0  0.2265625 0.0078125 0  0.234375 0.0078125 0  0.2421875 0.0078125 0  0.25 0.0078125 0  0.2578125 0.0078125 0  0.265625 0.0078125 0  0.2734375 0.0078125 0  0.28125 0.0078125 0  0.2890625 0.0078125 0  0.296875 0.0078125 0  0.3046875 0.0078125 0  0.3125 0.0078125 0  0.3203125 0.0078125 0  0.328125 0.0078125 0  0.3359375 0.0078125 0  0.34375 0.0078125 0  0.3515625 0.0078125 0  0.359375 0.0078125 0  0.3671875 0.0078125 0  0.375 0.0078125 0  0.3828125 0.0078125 0  0.390625 0.0078125 0  0.3984375 0.0078125 0  0.40625 0.0078125 0  0.4140625 0.0078125 0  0.421875 0.0078125 0  0.4296875 0.0078125 0  0.4375 0.0078125 0  0.4453125 0.0078125 0  0.453125 0.0078125 0  0.4609375 0.0078125 0  0.46875 0.0078125 0  0.4765625 0.0078125 0  0.484375 0.0078125 0  0.4921875 0.0078125 0  0.5 0.0078125 0  0.5078125 0.0078125 0  0.515625 0.0078125 0  0.5234375 0.0078125 0  0.53125 0.0078125 0  0.5390625 0.0078125 0  0.546875 0.0078125 0  0.5546875 0.0078125 0  0.5625 0.0078125 0  0.5703125 0.0078125 0  0.578125 0.0078125 0  0.5859375 0.0078125 0  0.59375 0.0078125 0  0.6015625 0.0078125 0  0.609375 0.0078125 0  0.6171875 0.0078125 0  0.625 0.0078125 0  0.6328125 0.0078125 0  0.640625 0.0078125 0  0.6484375 0.0078125 0  0.65625 0.0078125 0  0.6640625 0.0078125 0  0.671875 0.0078125 0  0.6796875 0.0078125 0  0.6875 0.0078125 0  0.6953125 0.0078125 0  0.703125 0.0078125 0  0.7109375 0.0078125 0  0.71875 0.0078125 0  0.7265625 0.0078125 0  0.734375 0.0078125 0  0.7421875 0.0078125 0  0.75 0.0078125 0  0.7578125 0.0078125 0  0.765625 0.0078125 0  0.7734375 0.0078125 0  0.78125 0.0078125 0  0.7890625 0.0078125 0  0.796875 0.0078125 0  0.8046875 0.0078125 0  0.8125 0.0078125 0  0.8203125 0.0078125 0  0.828125 0.0078125 0  0.8359375 0.0078125 0  0.84375 0.0078125 0  0.8515625 0.0078125 0  0.859375 0.0078125 0  0.8671875 0.0078125 0  0.875 0.0078125 0  0.8828125 0.0078125 0  0.890625 0.0078125 0  0.8984375 0.0078125 0  0.90625 0.0078125 0  0.9140625 0.0078125 0  0.921875 0.0078125 0  0.9296875 0.0078125 0  0.9375 0.0078125 0  0.9453125 0.0078125 0  0.953125 0.0078125 0  0.9609375 0.0078125 0  0.96875 0.0078125 0  0.9765625 0.0078125 0  0.984375 0.0078125 0  0.9921875 0.0078125 0  1 0.0078125 0  0 0.015625 0  0.0078125 0.015625 0  0.015625 0.015625 0  0.0234375 0.015625 0  0.03125 0.015625 0  0.0390625 0.015625 0  0.046875 0.015625 0  0.0546875 0.015625 0  0.0625 0.015625 0  0.0703125 0.015625 0  0.078125 0.015625 0  0.0859375 0.015625 0  0.09375 0.015625 0  0.1015625 0.015625 0  0.109375 0.015625 0  0.1171875 0.015625 0  0.125 0.015625 0  0.1328125 0.015625 0  0.140625 0.015625 0  0.1484375 0.015625 0  0.15625 0.015625 0  0.1640625 0.015625 0  0.171875 0.015625 0  0.1796875 0.015625 0  0.1875 0.015625 0  0.1953125 0.015625 0  0.203125 0.015625 0  0.2109375 0.015625 0  0.21875 0.015625 0  0.2265625 0.015625 0  0.234375 0.015625 0  0.2421875 0.015625 0  0.25 0.015625 0  0.2578125 0.015625 0  0.265625 0.015625 0  0.2734375 0.015625 0  0.28125 0.015625 0  0.2890625 0.015625 0  0.296875 0.015625 0  0.3046875 0.015625 0  0.3125 0.015625 0  0.3203125 0.015625 0  0.328125 0.015625 0  0.3359375 0.015625 0  0.34375 0.015625 0  0.3515625 0.015625 0  0.359375 0.015625 0  0.3671875 0.015625 0  0.375 0.015625 0  0.3828125 0.015625 0  0.390625 0.015625 0  0.3984375 0.015625 0  0.40625 0.015625 0  0.4140625 0.015625 0  0.421875 0.015625 0  0.4296875 0.015625 0  0.4375 0.015625 0  0.4453125 0.015625 0  0.453125 0.015625 0  0.4609375 0.015625 0  0.46875 0.015625 0  0.4765625 0.015625 0  0.484375 0.015625 0  0.4921875 0.015625 0  0.5 0.015625 0  0.5078125 0.015625 0  0.515625 0.015625 0  0.5234375 0.015625 0  0.53125 0.015625 0  0.5390625 0.015625 0  0.546875 0.015625 0  0.5546875 0.015625 0  0.5625 0.015625 0  0.5703125 0.015625 0  0.578125 0.015625 0  0.5859375 0.015625 0  0.59375 0.015625 0  0.6015625 0.015625 0  0.609375 0.015625 0  0.6171875 0.015625 0  0.625 0.015625 0  0.6328125 0.015625 0  0.640625 0.015625 0  0.6484375 0.015625 0  0.65625 0.015625 0  0.6640625 0.015625 0  0.671875 0.015625 0  0.6796875 0.015625 0  0.6875 0.015625 0  0.6953125 0.015625 0  0.703125 0.015625 0  0.7109375 0.015625 0  0.71875 0.015625 0  0.7265625 0.015625 0  0.734375 0.015625 0  0.7421875 0.015625 0  0.75 0.015625 0  0.7578125 0.015625 0  0.765625 0.015625 0  0.7734375 0.015625 0  0.78125 0.015625 0  0.7890625 0.015625 0  0.796875 0.015625 0  0.8046875 0.015625 0  0.8125 0.015625 0  0.8203125 0.015625 0  0.828125 0.015625 0  0.8359375 0.015625 0  0.84375 0.015625 0  0.8515625 0.015625 0  0.859375 0.015625 0  0.8671875 0.015625 0  0.875 0.015625 0  0.8828125 0.015625 0  0.890625 0.015625 0  0.8984375 0.015625 0  0.90625 0.015625 0  0.9140625 0.015625 0  0.921875 0.015625 0  0.9296875 0.015625 0  0.9375 0.015625 0  0.9453125 0.015625 0  0.953125 0.015625 0  0.9609375 0.015625 0  0.96875 0.015625 0  0.9765625 0.015625 0  0.984375 0.015625 0  0.9921875 0.015625 0  1 0.015625 0  0 0.0234375 0  0.0078125 0.0234375 0  0.015625 0.0234375 0  0.0234375 0.0234375 0  0.03125 0.0234375 0  0.0390625 0.0234375 0  0.046875 0.0234375 0  0.0546875 0.0234375 0  0.0625 0.0234375 0  0.0703125 0.0234375 0  0.078125 0.0234375 0  0.0859375 0.0234375 0  0.09375 0.0234375 0  0.1015625 0.0234375 0  0.109375 0.0234375 0  0.1171875 0.0234375 0  0.125 0.0234375 0  0.1328125 0.0234375 0  0.140625 0.0234375 0  0.1484375 0.0234375 0  0.15625 0.0234375 0  0.1640625 0.0234375 0  0.171875 0.0234375 0  0.1796875 0.0234375 0  0.1875 0.0234375 0  0.1953125 0.0234375 0  0.203125 0.0234375 0  0.2109375 0.0234375 0  0.21875 0.0234375 0  0.2265625 0.0234375 0  0.234375 0.0234375 0  0.2421875 0.0234375 0  0.25 0.0234375 0  0.2578125 0.0234375 0  0.265625 0.0234375 0  0.2734375 0.0234375 0  0.28125 0.0234375 0  0.2890625 0.0234375 0  0.296875 0.0234375 0  0.3046875 0.0234375 0  0.3125 0.0234375 0  0.3203125 0.0234375 0  0.328125 0.0234375 0  0.3359375 0.0234375 0  0.34375 0.0234375 0  0.3515625 0.0234375 0  0.359375 0.0234375 0  0.3671875 0.0234375 0  0.375 0.0234375 0  0.3828125 0.0234375 0  0.390625 0.0234375 0  0.3984375 0.0234375 0  0.40625 0.0234375 0  0.4140625 0.0234375 0  0.421875 0.0234375 0  0.4296875 0.0234375 0  0.4375 0.0234375 0  0.4453125 0.0234375 0  0.453125 0.0234375 0  0.4609375 0.0234375 0  0.46875 0.0234375 0  0.4765625 0.0234375 0  0.484375 0.0234375 0  0.4921875 0.0234375 0  0.5 0.0234375 0  0.5078125 0.0234375 0  0.515625 0.0234375 0  0.5234375 0.0234375 0  0.53125 0.0234375 0  0.5390625 0.0234375 0  0.546875 0.0234375 0  0.5546875 0.0234375 0  0.5625 0.0234375 0  0.5703125 0.0234375 0  0.578125 0.0234375 0  0.5859375 0.0234375 0  0.59375 0.0234375 0  0.6015625 0.0234375 0  0.609375 0.0234375 0  0.6171875 0.0234375 0  0.625 0.0234375 0  0.6328125 0.0234375 0  0.640625 0.0234375 0  0.6484375 0.0234375 0  0.65625 0.0234375 0  0.6640625 0.0234375 0  0.671875 0.0234375 0  0.6796875 0.0234375 0  0.6875 0.0234375 0  0.6953125 0.0234375 0  0.703125 0.0234375 0  0.7109375 0.0234375 0  0.71875 0.0234375 0  0.7265625 0.0234375 0  0.734375 0.0234375 0  0.7421875 0.0234375 0  0.75 0.0234375 0  0.7578125 0.0234375 0  0.765625 0.0234375 0  0.7734375 0.0234375 0  0.78125 0.0234375 0  0.7890625 0.0234375 0  0.796875 0.0234375 0  0.8046875 0.0234375 0  0.8125 0.0234375 0  0.8203125 0.0234375 0  0.828125 0.0234375 0  0.8359375 0.0234375 0  0.84375 0.0234375 0  0.8515625 0.0234375 0  0.859375 0.0234375 0  0.8671
[...]
<CellData  Scalars="f_240673"> 
<DataArray  type="Float64"  Name="f_240673"  format="ascii">7.7993073442157489e-03   7.7998024282468709e-03   1.8474731601839611e-02   3.8296085542261007e-02   2.4496822285148864e-02   6.4112998592950499e-02   2.6306305862335417e-02   7.6066156734280715e-02   2.5460227534986300e-02   7.7458775406411176e-02   2.3048706005233940e-02   7.2498499430165439e-02   1.9687109975795800e-02   6.3773748483148263e-02   1.5819713277907228e-02   5.2881421905080869e-02   1.1889235913859314e-02   4.1161808614270115e-02   8.3405976986478721e-03   2.9961517038435463e-02   5.4679117269699797e-03   2.0377814317929385e-02   3.3817203896295239e-03   1.3009381374637360e-02   2.0128592893952717e-03   7.9013013806954486e-03   1.1872388675246571e-03   4.6813436325195351e-03   7.2070238437557579e-04   2.7911480501575611e-03   4.7193314679673445e-04   1.7496728115930595e-03   3.4709076005390267e-04   1.2083798595615288e-03   2.9038861135987764e-04   9.4672970160496943e-04   2.7135224882980527e-04   8.3823785884859622e-04   2.7514635928095924e-04   8.1701301914753101e-04   2.9518850786575725e-04   8.5507919388548006e-04   3.2649217509043440e-04   9.3220470352105365e-04   3.6701543284879088e-04   1.0391793946801192e-03   4.1679843456074542e-04   1.1760588887334276e-03   4.6909859694744334e-04   1.3276475383945743e-03   5.2014052093763915e-04   1.4808458141817233e-03   5.6639928359043963e-04   1.6252466895700956e-03   6.0657034040388245e-04   1.7528173386550856e-03   6.4265820153024112e-04   1.8655513185752252e-03   6.8067198071709986e-04   1.9758654367930117e-03   7.2840209333084333e-04   2.1042627093648676e-03   7.9307994073572763e-04   2.2735827319596380e-03   8.7906851901561260e-04   2.5005007979350975e-03   9.9080474806747718e-04   2.7991853154895646e-03   1.1237628227000842e-03   3.1677455553937336e-03   1.2709577505702395e-03   3.5884139496604487e-03   1.4222501544040528e-03   4.0370604991249431e-03   1.5645712617894457e-03   4.4772141587740375e-03   1.6884910889264904e-03   4.8805155788648686e-03   1.7725115662151493e-03   5.1908133397334444e-03   1.8067358973793920e-03   5.3656336712167973e-03   1.7896425196242201e-03   5.3866367624483607e-03   1.7314011381157008e-03   5.2674437570681583e-03   1.6546385795762832e-03   5.0581193555019029e-03   1.5971463321234787e-03   4.8471746663244792e-03   1.6082524316550215e-03   4.7735067759900607e-03   1.7410323772621226e-03   4.9808518709631338e-03   2.0483399615123751e-03   5.6319939147123467e-03   2.5608914712727843e-03   6.8538389410322809e-03   3.2541819295045979e-03   8.6555339298135595e-03   4.0348661965686431e-03   1.0858859461115008e-02   4.7455620604896116e-03   1.3086273360029996e-02   5.2084303148534393e-03   1.4831274752456642e-02   5.2899059824006150e-03   1.5628114655480092e-02   4.9519474643149181e-03   1.5221916299984376e-02   4.2695497972038438e-03   1.3675575064746343e-02   3.3974234416726938e-03   1.1340802727159944e-02   2.5086109802739585e-03   8.7137006452513814e-03   1.7304323974035570e-03   6.2388042260992475e-03   1.1250834092450322e-03   4.1925788381045092e-03   6.9561267626973668e-04   2.6709518527659008e-03   4.1006993762953976e-04   1.6206440256712449e-03   2.2851577656461840e-04   9.3584920638818507e-04   1.1472452491025867e-04   5.0229388744515318e-04   4.1605470403296569e-05   2.2924090104175523e-04   0.0000000000000000e+00   4.5624655670379111e-05   0.0000000000000000e+00   0.0000000000000000e+00   0.0000000000000000e+00   0.0000000000000000e+00   0.0000000000000000e+00   0.0000000000000000e+00   0.0000000000000000e+00   0.0000000000000000e+00   0.0000000000000000e+00   0.0000000000000000e+00   0.0000000000000000e+00   0.0000000000000000e+00   0.0000000000000000e+00   0.0000000000000000e+00   0.0000000000000000e+00   0.0000000000000000e+00   0.0000000000000000e+00   0.0000000000000000e+00   0.0000000000000000e+00   0.0000000000000000e+00   0.0000000000000000e+00   0.0000000000000000e+00   0.0000000000000000e+00   0.0000000000000000e+00   0.0000000000000000e+00   0.0000000000000000e+00   0.0000000000000000e+00   0.0000000000000000e+00   0.0000000000000000e+00   0.0000000000000000e+00   0.0000000000000000e+00   0.0000000000000000e+00   0.0000000000000000e+00   0.0000000000000000e+00   0.0000000000000000e+00   0.0000000000000000e+00   0.0000000000000000e+00   0.0000000000000000e+00   0.0000000000000000e+00   0.0000000000000000e+00   0.0000000000000000e+00   0.0000000000000000e+00   0.0000000000000000e+00   0.0000000000000000e+00   0.0000000000000000e+00   0.0000000000000000e+00   0.0000000000000000e+00   0.0000000000000000e+00   0.0000000000000000e+00   0.0000000000000000e+00   0.0000000000000000e+00   0.0000000000000000e+00   0.0000000000000000e+00   0.0000000000000000e+00   0.0000000000000000e+00   0.0000000000000000e+00   0.0000000000000000e+00   0.0000000000000000e+00   0.0000000000000000e+00   0.0000000000000000e+00   0.0000000000000000e+00   0.0000000000000000e+00   0.0000000000000000e+00   0.0000000000000000e+00   0.0000000000000000e+00   0.0000000000000000e+00   0.0000000000000000e+00   0.0000000000000000e+00   0.0000000000000000e+00   0.0000000000000000e+00   0.0000000000000000e+00   0.0000000000000000e+00   0.0000000000000000e+00   0.0000000000000000e+00   0.0000000000000000e+00   0.0000000000000000e+00   0.0000000000000000e+00   0.0000000000000000e+00   0.0000000000000000e+00   0.0000000000000000e+00   0.0000000000000000e+00   0.0000000000000000e+00   0.0000000000000000e+00   0.0000000000000000e+00   0.0000000000000000e+00   0.0000000000000000e+00   0.0000000000000000e+00   0.0000000000000000e+00   0.0000000000000000e+00   0.0000000000000000e+00   0.0000000000000000e+00   0.0000000000000000e+00   0.0000000000000000e+00   0.0000000000000000e+00   0.0000000000000000e+00   0.0000000000000000e+00   0.0000000000000000e+00   0.0000000000000000e+00   0.0000000000000000e+00   0.0000000000000000e+00   0.0000000000000000e+00   0.0000000000000000e+00   0.0000000000000000e+00   0.0000000000000000e+00   0.0000000000000000e+00   0.0000000000000000e+00   0.0000000000000000e+00   0.0000000000000000e+00   0.0000000000000000e+00   0.0000000000000000e+00   0.0000000000000000e+00   0.0000000000000000e+00   4.1251065719406511e-04   2.5519208637181287e-04   1.0222883425913330e-03   2.1261262694502203e-03   1.3305450379065844e-03   3.5087373162814971e-03   1.1088778609019284e-03   3.6279188592472310e-03   4.4877528827583295e-04   2.2452095437030168e-03   0.0000000000000000e+00   4.4503634574436456e-04   3.7284694975378861e-02   1.7721924422363557e-02   1.2839487543874042e-01   1.2682999591134361e-01   1.9369025049279923e-01   2.3222238831195396e-01   2.2099989824858815e-01   2.8637622810890812e-01   2.2223085165007356e-01   3.0009795843154768e-01   2.0765894908478733e-01   2.8910884316335961e-01   1.8302278219685073e-01   2.6243792354318107e-01   1.5201286292523405e-01   2.2505892018745802e-01   1.1826723231820238e-01   1.8132196744895446e-01   8.5896254158814189e-02   1.3646821779854162e-01   5.8208661038629553e-02   9.5786924175131363e-02   3.7073603408098843e-02   6.2923227988511590e-02   2.2581672206995342e-02   3.9191810278346832e-02   1.3524185184931379e-02   2.3756724937815697e-02   8.2492698768160851e-03   1.4458021866180473e-02   5.3652447601165321e-03   9.2227055493488159e-03   3.8821852816567186e-03   6.4524020885786898e-03   3.1826503238439399e-03   5.0916360184419911e-03   2.9183807481095209e-03   4.5149426966059926e-03   2.9132179075574468e-03   4.3902985203368456e-03   3.0885805539833766e-03   4.5712916552099452e-03   3.3847701663730040e-03   4.9555957650051921e-03   3.7749056491439780e-03   5.4910548757996468e-03   4.2660746060859331e-03   6.1725997963612894e-03   4.7867347214255338e-03   6.9338731605026105e-03   5.3014914206360123e-03   7.7030739056993406e-03   5.7765772168347426e-03   8.4305749221734502e-03   6.1978580585443678e-03   9.0839646194603978e-03   6.5789696643485853e-03   9.6682975346554702e-03   6.9757322449051770e-03   1.0249225036177617e-02   7.4620930426710762e-03   1.0928414076424734e-02   8.1110463931785802e-03   1.1818377191378319e-02   8.9699644333779676e-03   1.3002350205692096e-02   1.0088151569659976e-02   1.4547067170121206e-02   1.1430175012535531e-02   1.6456203887038178e-02   1.2927880929859789e-02   1.8630521741897412e-02   1.4485482710832666e-02   2.0949661746116906e-02   1.5974247526352379e-02   2.3228701499494721e-02   1.7307297125294746e-02   2.5327014618605700e-02   1.8257000217824722e-02   2.6962661274932506e-02   1.8712349184150961e-02   2.7912426908542485e-02   1.8636279437391375e-02   2.8073524156014287e-02   1.8104831838446470e-02   2.7496609705639462e-02   1.7313636189832015e-02   2.6407364959269982e-02   1.6605783576051230e-02   2.5216086064968970e-02   1.6427787536147102e-02   2.4557194849607424e-02   1.7261957332870986e-02   2.5074050221543617e-02   1.9605758389017795e-02   2.7491235334676116e-02   2.3790865538420993e-02   3.2380571333843207e-02   2.9696225956795722e-02   3.9829158479513127e-02   3.6607404891464156e-02   4.9114364315368204e-02   4.3220079702609986e-02   5.8682015041512332e-02   4.7954322578291651e-02   6.6390317066314861e-02   4.9495509071820140e-02   7.0210421544420462e-02   4.7273909292560416e-02   6.8922532127345143e-02   4.1709688199077895e-02   6.2615302762723993e-02   3.4033127457091687e-02   5.2642170262175360e-02   2.5794642881429526e-02   4.1078074204019925e-02   1.8264595787851588e-02   2.9912142229504248e-02   1.2181979178268083e-02   2.0459354766810506e-02   7.7175340474839984e-03   1.3272164297299100e-02   4.6591857825951785e-03   8.1985923991894256e-03   2.6656708078817465e-03   4.8161224670848959e-03   1.3931995281529145e-03   2.6262927740564887e-03   5.6837714729183586e-04   1.2164452953326006e-03   0.0000000000000000e+00   2.4846238158394442e-04   0.0000000000000000e+00   0.0000000000000000e+00   0.0000000000000000e+00   0.0000000000000000e+00   0.0000000000000000e+00   0.0000000000000000e+00   0.0000000000000000e+00   0.0000000000000000e+00   0.0000000000000000e+00   0.0000000000000000e+00   0.0000000000000000e+00   0.0000000000000000e+00   0.0000000000000000e+00   0.0000000000000000e+00   0.0000000000000000e+00   0.0000000000000000e+00   0.0000000000000000e+00   0.0000000000000000e+00   0.0000000000000000e+00   0.0000000000000000e+00   0.0000000000000000e+00   0.0000000000000000e+00   0.0000000000000000e+00   0.0000000000000000e+00   0.0000000000000000e+00   0.0000000000000000e+00   0.0000000000000000e+00   0.0000000000000000e+00   0.0000000000000000e+00   0.0000000000000000e+00   0.0000000000000000e+00   0.0000000000000000e+00   0.0000000000000000e+00   0.0000000000000000e+00   0.0000000000000000e+00   0.0000000000000000e+00   0.0000000000000000e+00   0.0000000000000000e+00   0.0000000000000000e+00   0.0000000000000000e+00   0.0000000000000000e+00   0.0000000000000000e+00   0.0000000000000000e+00   0.0000000000000000e+00   0.0000000000000000e+00   0.0000000000000000e+00   0.0000000000000000e+00   0.0000000000000000e+00   0.0000000000000000e+00   0.0000000000000000e+00   0.0000000000000000e+00   0.0000000000000000e+00   0.0000000000000000e+00   0.0000000000000000e+00   0.0000000000000000e+00   0.0000000000000000e+00   0.0000000000000000e+00   0.0000000000000000e+00   0.0000000000000000e+00   0.0000000000000000e+00   0.0000000000000000e+00   0.0000000000000000e+00   0.0000000000000000e+00   0.0000000000000000e+00   0.0000000000000000e+00   0.0000000000000000e+00   0.0000000000000000e+00   0.0000000000000000e+00   0.0000000000000000e+00   0.0000000000000000e+00   0.0000000000000000e+00   0.0000000000000000e+00   0.0000000000000000e+00   0.0000000000000000e+00   0.0000000000000000e+00   0.0000000000000000e+00   0.0000000000000000e+00   0.0000000000000000e+00   0.0000000000000000e+00   0.0000000000000000e+00   0.0000000000000000e+00   0.0000000000000000e+00   0.0000000000000000e+00   0.0000000000000000e+00   0.0000000000000000e+00   0.0000000000000000e+00   0.0000000000000000e+00   0.0000000000000000e+00   0.0000000000000000e+00   0.0000000000000000e+00   0.0000000000000000e+00   0.0000000000000000e+00   0.0000000000000000e+00   0.0000000000000000e+00   0.0000000000000000e+00   0.0000000000000000e+00   0.0000000000000000e+00   0.0000000000000000e+00   0.0000000000000000e+00   0.0000000000000000e+00   0.0000000000000000e+00   0.0000000000000000e+00   0.0000000000000000e+00   0.0000000000000000e+00   0.0000000000000000e+00   0.0000000000000000e+00   0.0000000000000000e+00   0.0000000000000000e+00   0.0000000000000000e+00   0.0000000000000000e+00   0.0000000000000000e+00   0.0000000000000000e+00   1.5962911754799709e-03   0.0000000000000000e+00   7.5894971526937628e-03   7.3269481019845152e-03   1.1332233209800988e-02   1.4225919208684761e-02   1.0543306085424958e-02   1.5649371161100836e-02   5.3520097436485781e-03   1.0297097644988124e-02   4.4668176197719606e-04   2.3985397893902783e-03   5.9512515796080814e-02   2.2148067362471196e-02   2.2511660693141847e-01   1.8191638654312084e-01   3.5429728541320937e-01   3.4847333178863643e-01   4.1498398288906940e-01   4.4052639172817259e-01   4.2774470071965742e-01   4.7199775858512100e-01   4.1091305715728188e-01   4.6610596113839114e-01   3.7364691034064251e-01   4.3526497159711902e-01   3.2105634475377220e-01   3.8521479530629749e-01   2.5874686400345670e-01   3.2096614819809155e-01   1.9458227993448773e-01   2.4989362842457585e-01   1.3640855105142688e-01   1.8149000931357892e-01   8.9711102891157649e-02   1.2322651185079495e-01   5.6275975125682297e-02   7.9261713061859557e-02   3.4705414327331340e-02   4.9538938008978128e-02   2.1773673845762294e-02   3.1127598327542447e-02   1.4531573354645085e-02   2.0484834075248978e-02   1.0736512354370169e-02   1.4732677882110651e-02   8.9185597174157080e-03   1.1862914496649403e-02   8.2245560431781321e-03   1.0637345966820881e-02   8.2053307385121527e-03   1.0382134684696362e-02   8.6694306707596706e-03   1.0785421439929043e-02   9.4506392333156899e-03   1.1640338578239507e-02   1.0472334807695657e-02   1.2818854930187053e-02   1.1739938159044942e-02   1.4282918730391631e-02   1.3092260486591078e-02   1.5937317256174931e-02   1.4423858933666135e-02   1.7595358215209331e-02   1.5655839876474370e-02   1.9158283152418826e-02   1.6766714247411919e-02   2.0585417200734368e-02   1.7794434845841825e-02   2.1884687898039521e-02   1.8897153360815058e-02   2.3222838872885874e-02   2.0262794571486890e-02   2.4822806677691957e-02   2.2076170467336849e-02   2.6921636611407684e-02   2.4451973355970675e-02   2.9689411845353675e-02   2.7498631404479109e-02   3.3231890273244497e-02   3.1151817429690233e-02   3.7608663200325354e-02   3.5199770212439391e-02   4.2548463069139154e-02   3.9388634640338878e-02   4.7781075132280248e-02   4.3369111214288311e-02   5.2888194194203014e-02   4.6940309556847568e-02   5.7560870286899796e-02   4.9488271744320668e-02   6.1209092646795575e-02   5.0730003431149279e-02   6.3320225181070861e-02   5.0556884429523018e-02   6.3690965431626625e-02   4.9146373595441578e-02   6.2400631339439509e-02   4.6966063452266740e-02   5.9902328490206859e-02   4.4850559609596413e-02   5.7038204508030897e-02   4.3834608199654242e-02   5.5024110187804183e-02   4.5002156365443101e-02   5.5079426161233028e-02   4.9451063911103793e-02   5.8516283533708226e-02   5.7891164468802589e-02   6.6329167345757500e-02   7.0075425371548525e-02   7.8698818681107452e-02   8.4464577534580490e-02   9.4307362725114446e-02   9.8334275320955941e-02   1.1047985008880172e-01   1.0836443948202847e-01   1.2355737699112299e-01   1.1175850316291863e-01   1.3006032216358276e-01   1.0719856954351810e-01   1.2781124471339442e-01   9.5391557206688307e-02   1.1680642858449565e-01   7.8786802993531857e-02   9.9200396948730715e-02   6.0621354673878011e-02   7.8451006675522406e-02   4.3676188935322907e-02   5.8078585124767837e-02   2.9696812684981887e-02   4.0476709141637750e-02   1.9194743442764471e-02   2.6796683810473589e-02   1.1816249627451387e-02   1.6891583512704041e-02   6.8752835168917597e-03   1.0101143423451557e-02   3.6285897972086019e-03   5.5669188364973286e-03   1.4577141169062335e-03   2.5472854508126418e-03   0.0000000000000000e+00   3.9685932610805994e-04   0.0000000000000000e+00   0.0000000000000000e+00   0.0000000000000000e+00   0.0000000000000000e+00   0.0000000000000000e+00   0.0000000000000000e+00   0.0000000000000000e+00   0.0000000000000000e+00   0.0000000000000000e+00   0.0000000000000000e+00   0.0000000000000000e+00   0.0000000000000000e+00   0.0000000000000000e+00   0.0000000000000000e+00   0.0000000000000000e+00   0.0000000000000000e+00   0.0000000000000000e+00   0.0000000000000000e+00   0.0000000000000000e+00   0.0000000000000000e+00   0.0000000000000000e+00   0.0000000000000000e+00   0.0000000000000000e+00   0.0000000000000000e+00   0.0000000000000000e+00   0.0000000000000000e+00   0.0000000000000000e+00   0.0000000000000000e+00   0.0000000000000000e+00   0.0000000000000000e+00   0.0000000000000000e+00   0.0000000000000000e+00   0.0000000000000000e+00   0.0000000000000000e+00   0.0000000000000000e+00   0.0000000000000000e+00   0.0000000000000000e+00   0.0000000000000000e+00   0.0000000000000000e+00   0.0000000000000000e+00   0.0000000000000000e+00   0.0000000000000000e+00   0.0000000000000000e+00   0.0000000000000000e+00   0.0000000000000000e+00   0.0000000000000000e+00   0.0000000000000000e+00   0.0000000000000000e+00   0.0000000000000000e+00   0.0000000000000000e+00   0.0000000000000000e+00   0.0000000000000000e+00   0.0000000000000000e+00   0.0000000000000000e+00   0.0000000000000000e+00   0.0000000000000000e+00   0.0000000000000000e+00   0.0000000000000000e+00   0.0000000000000000e+00   0.0000000000000000e+00   0.0000000000000000e+00   0.0000000000000000e+00   0.0000000000000000e+00   0.0000000000000000e+00   0.0000000000000000e+00   0.0000000000000000e+00   0.0000000000000000e+00   0.0000000000000000e+00   0.0000000000000000e+00   0.0000000000000000e+00   0.0000000000000000e+00   0.0000000000000000e+00   0.0000000000000000e+00   0.0000000000000000e+00   0.0000000000000000e+00   0.0000000000000000e+00   0.0000000000000000e+00   0.0000000000000000e+00   0.0000000000000000e+00   0.0000000000000000e+00   0.0000000000000000e+00   0.0000000000000000e+00   0.0000000000000000e+00   0.0000000000000000e+00   0.0000000000000000e+00   0.0000000000000000e+00   0.0000000000000000e+00   0.0000000000000000e+00   0.0000000000000000e+00   0.0000000000000000e+00   0.0000000000000000e+00   0.0000000000000000e+00   0.0000000000000000e+00   0.0000000000000000e+00   0.0000000000000000e+00   0.0000000000000000e+00   0.0000000000000000e+00   0.0000000000000000e+00   0.0000000000000000e+00   0.0000000000000000e+00   0.0000000000000000e+00   0.0000000000000000e+00   0.0000000000000000e+00   0.0000000000000000e+00   0.0000000000000000e+00   0.0000000000000000e+00   0.0000000000000000e+00   0.0000000000000000e+00   0.0000000000000000e+00   0.0000000000000000e+00   0.0000000000000000e+00   0.0000000000000000e+00   0.0000000000000000e+00   0.0000000000000000e+00   1.3507801455836268e-02   8.3005822469738796e-03   2.3023900341579515e-02   2.2584370532773550e-02   2.2347592635823820e-02   2.6661639892193254e-02   1.1758588462860332e-02   1.8106304232620014e-02   1.2217978034059860e-03   4.4438240323602680e-03   6.6265928809384270e-02   2.2124489046378995e-02   2.6290300712704984e-01   1.9517526706776858e-01   4.2624473700467946e-01   3.8743237040897571e-01   5.1031809565530595e-01   5.0206622153651304e-01   5.3681018153525162e-01   5.4892677364410036e-01   5.2697645664064041e-01   5.5255391119231989e-01   4.9092606469286520e-01   5.2649398528130187e-01   4.3345789049842753e-01   4.7654646545648199e-01   3.5994001672137682e-01   4.0727622889005777e-01   2.7931481564672345e-01   3.2603217131886025e-01   2.0250662217484938e-01   2.4418088478851371e-01   1.3785646521689263e-01   1.7138463799913051e-01   8.9582299372902158e-02   1.1418221370410730e-01   5.7206679327836227e-02   7.3921166158210094e-02   3.724768