<?xml version="1.0"?>
<VTKFile type="UnstructuredGrid"  version="0.1"  >
<UnstructuredGrid>
<Piece  NumberOfPoints="16641" NumberOfCells="32768">
<Points>
<DataArray  type="Float64"  NumberOfComponents="3"  format="ascii">0 0 0  0.0078125 0 0  0.015625 0 0  0.0234375 0 0  0.03125 0 0  0.0390625 0 0  0.046875 0 0  0.0546875 0 0  0.0625 0 0  0.0703125 0 0  0.078125 0 0  0.0859375 0 0  0.09375 0 0  0.1015625 0 0  0.109375 0 0  0.1171875 0 0  0.125 0 0  0.1328125 0 0  0.140625 0 0  0.1484375 0 0  0.15625 0 0  0.1640625 0 0  0.171875 0 0  0.1796875 0 0  0.1875 0 0  0.1953125 0 0  0.203125 0 0  0.2109375 0 0  0.21875 0 0  0.2265625 0 0  0.234375 0 0  0.2421875 0 0  0.25 0 0  0.2578125 0 0  0.265625 0 0  0.2734375 0 0  0.28125 0 0  0.2890625 0 0  0.296875 0 0  0.3046875 0 0  0.3125 0 0  0.3203125 0 0  0.328125 0 0  0.3359375 0 0  0.34375 0 0  0.3515625 0 0  0.359375 0 0  0.3671875 0 0  0.375 0 0  0.3828125 0 0  0.390625 0 0  0.3984375 0 0  0.40625 0 0  0.4140625 0 0  0.421875 0 0  0.4296875 0 0  0.4375 0 0  0.4453125 0 0  0.453125 0 0  0.4609375 0 0  0.46875 0 0  0.4765625 0 0  0.484375 0 0  0.4921875 0 0  0.5 0 0  0.5078125 0 0  0.515625 0 0  0.5234375 0 0  0.53125 0 0  0.5390625 0 0  0.546875 0 0  0.5546875 0 0  0.5625 0 0  0.5703125 0 0  0.578125 0 0  0.5859375 0 0  0.59375 0 0  0.6015625 0 0  0.609375 0 0  0.6171875 0 0  0.625 0 0  0.6328125 0 0  0.640625 0 0  0.6484375 0 0  0.65625 0 0  0.6640625 0 0  0.671875 0 0  0.6796875 0 0  0.6875 0 0  0.6953125 0 0  0.703125 0 0  0.7109375 0 0  0.71875 0 0  0.7265625 0 0  0.734375 0 0  0.7421875 0 0  0.75 0 0  0.7578125 0 0  0.765625 0 0  0.7734375 0 0  0.78125 0 0  0.7890625 0 0  0.796875 0 0  0.8046875 0 0  0.8125 0 0  0.8203125 0 0  0.828125 0 0  0.8359375 0 0  0.84375 0 0  0.8515625 0 0  0.859375 0 0  0.8671875 0 0  0.875 0 0  0.8828125 0 0  0.890625 0 0  0.8984375 0 0  0.90625 0 0  0.9140625 0 0  0.921875 0 0  0.9296875 0 0  0.9375 0 0  0.9453125 0 0  0.953125 0 0  0.9609375 0 0  0.96875 0 0  0.9765625 0 0  0.984375 0 0  0.9921875 0 0  1 0 0  0 0.0078125 0  0.0078125 0.0078125 0  0.015625 0.0078125 0  0.0234375 0.0078125 0  0.03125 0.0078125 0  0.0390625 0.0078125 0  0.046875 0.0078125 0  0.0546875 0.0078125 0  0.0625 0.0078125 0  0.0703125 0.0078125 0  0.078125 0.0078125 0  0.0859375 0.0078125 0  0.09375 0.0078125 0  0.1015625 0.0078125 0  0.109375 0.0078125 0  0.1171875 0.0078125 0  0.125 0.0078125 0  0.1328125 0.0078125 0  0.140625 0.0078125 0  0.1484375 0.0078125 0  0.15625 0.0078125 0  0.1640625 0.0078125 0  0.171875 0.0078125 0  0.1796875 0.0078125 0  0.1875 0.0078125 0  0.1953125 0.0078125 0  0.203125 0.0078125 0  0.2109375 0.0078125 0  0.21875 0.0078125 0  0.2265625 0.0078125 0  0.234375 0.0078125 0  0.2421875 0.0078125 0  0.25 0.0078125 0  0.2578125 0.0078125 0  0.265625 0.0078125 0  0.2734375 0.0078125 0  0.28125 0.0078125 0  0.2890625 0.0078125 0  0.296875 0.0078125 0  0.3046875 0.0078125 0  0.3125 0.0078125 0  0.3203125 0.0078125 0  0.328125 0.0078125 0  0.3359375 0.0078125 0  0.34375 0.0078125 0  0.3515625 0.0078125 0  0.359375 0.0078125 0  0.3671875 0.0078125 0  0.375 0.0078125 0  0.3828125 0.0078125 0  0.390625 0.0078125 0  0.3984375 0.0078125 0  0.40625 0.0078125 0  0.4140625 0.0078125 0  0.421875 0.0078125 0  0.4296875 0.0078125 0  0.4375 0.0078125 0  0.4453125 0.0078125 0  0.453125 0.0078125 0  0.4609375 0.0078125 0  0.46875 0.0078125 0  0.4765625 0.0078125 0  0.484375 0.0078125 0  0.4921875 0.0078125 0  0.5 0.0078125 0  0.5078125 0.0078125 0  0.515625 0.0078125 0  0.5234375 0.0078125 0  0.53125 0.0078125 0  0.5390625 0.0078125 0  0.546875 0.0078125 0  0.5546875 0.0078125 0  0.5625 0.0078125 0  0.5703125 0.0078125 0  0.578125 0.0078125 0  0.5859375 0.0078125 0  0.59375 0.0078125 0  0.6015625 0.0078125 0  0.609375 0.0078125 0  0.6171875 0.0078125 0  0.625 0.0078125 0  0.6328125 0.0078125 0  0.640625 0.0078125 0  0.6484375 0.0078125 0  0.65625 0.0078125 0  0.6640625 0.0078125 0  0.671875 0.0078125 0  0.6796875 0.0078125 0  0.6875 0.0078125 0  0.6953125 0.0078125 0  0.703125 0.0078125 0  0.7109375 0.0078125 0  0.71875 0.0078125 0  0.7265625 0.0078125 0  0.734375 0.0078125 0  0.7421875 0.0078125 0  0.75 0.0078125 0  0.7578125 0.0078125 0  0.765625 0.0078125 0  0.7734375 0.0078125 0  0.78125 0.0078125 0  0.7890625 0.0078125 0  0.796875 0.0078125 0  0.8046875 0.0078125 0  0.8125 0.0078125 0  0.8203125 0.0078125 0  0.828125 0.0078125 0  0.8359375 0.0078125 0  0.84375 0.0078125 0  0.8515625 0.0078125 0  0.859375 0.0078125 0  0.8671875 0.0078125 0  0.875 0.0078125 0  0.8828125 0.0078125 0  0.890625 0.0078125 0  0.8984375 0.0078125 0  0.90625 0.0078125 0  0.9140625 0.0078125 0  0.921875 0.0078125 0  0.9296875 0.0078125 0  0.9375 0.0078125 0  0.9453125 0.0078125 0  0.953125 0.0078125 0  0.9609375 0.0078125 0  0.96875 0.0078125 0  0.9765625 0.0078125 0  0.984375 0.0078125 0  0.9921875 0.0078125 0  1 0.0078125 0  0 0.015625 0  0.0078125 0.015625 0  0.015625 0.015625 0  0.0234375 0.015625 0  0.03125 0.015625 0  0.0390625 0.015625 0  0.046875 0.015625 0  0.0546875 0.015625 0  0.0625 0.015625 0  0.0703125 0.015625 0  0.078125 0.015625 0  0.0859375 0.015625 0  0.09375 0.015625 0  0.1015625 0.015625 0  0.109375 0.015625 0  0.1171875 0.015625 0  0.125 0.015625 0  0.1328125 0.015625 0  0.140625 0.015625 0  0.1484375 0.015625 0  0.15625 0.015625 0  0.1640625 0.015625 0  0.171875 0.015625 0  0.1796875 0.015625 0  0.1875 0.015625 0  0.1953125 0.015625 0  0.203125 0.015625 0  0.2109375 0.015625 0  0.21875 0.015625 0  0.2265625 0.015625 0  0.234375 0.015625 0  0.2421875 0.015625 0  0.25 0.015625 0  0.2578125 0.015625 0  0.265625 0.015625 0  0.2734375 0.015625 0  0.28125 0.015625 0  0.2890625 0.015625 0  0.296875 0.015625 0  0.3046875 0.015625 0  0.3125 0.015625 0  0.3203125 0.015625 0  0.328125 0.015625 0  0.3359375 0.015625 0  0.34375 0.015625 0  0.3515625 0.015625 0  0.359375 0.015625 0  0.3671875 0.015625 0  0.375 0.015625 0  0.3828125 0.015625 0  0.390625 0.015625 0  0.3984375 0.015625 0  0.40625 0.015625 0  0.4140625 0.015625 0  0.421875 0.015625 0  0.4296875 0.015625 0  0.4375 0.015625 0  0.4453125 0.015625 0  0.453125 0.015625 0  0.4609375 0.015625 0  0.46875 0.015625 0  0.4765625 0.015625 0  0.484375 0.015625 0  0.4921875 0.015625 0  0.5 0.015625 0  0.5078125 0.015625 0  0.515625 0.015625 0  0.5234375 0.015625 0  0.53125 0.015625 0  0.5390625 0.015625 0  0.546875 0.015625 0  0.5546875 0.015625 0  0.5625 0.015625 0  0.5703125 0.015625 0  0.578125 0.015625 0  0.5859375 0.015625 0  0.59375 0.015625 0  0.6015625 0.015625 0  0.609375 0.015625 0  0.6171875 0.015625 0  0.625 0.015625 0  0.6328125 0.015625 0  0.640625 0.015625 0  0.6484375 0.015625 0  0.65625 0.015625 0  0.6640625 0.015625 0  0.671875 0.015625 0  0.6796875 0.015625 0  0.6875 0.015625 0  0.6953125 0.015625 0  0.703125 0.015625 0  0.7109375 0.015625 0  0.71875 0.015625 0  0.7265625 0.015625 0  0.734375 0.015625 0  0.7421875 0.015625 0  0.75 0.015625 0  0.7578125 0.015625 0  0.765625 0.015625 0  0.7734375 0.015625 0  0.78125 0.015625 0  0.7890625 0.015625 0  0.796875 0.015625 0  0.8046875 0.015625 0  0.8125 0.015625 0  0.8203125 0.015625 0  0.828125 0.015625 0  0.8359375 0.015625 0  0.84375 0.015625 0  0.8515625 0.015625 0  0.859375 0.015625 0  0.8671875 0.015625 0  0.875 0.015625 0  0.8828125 0.015625 0  0.890625 0.015625 0  0.8984375 0.015625 0  0.90625 0.015625 0  0.9140625 0.015625 0  0.921875 0.015625 0  0.9296875 0.015625 0  0.9375 0.015625 0  0.9453125 0.015625 0  0.953125 0.015625 0  0.9609375 0.015625 0  0.96875 0.015625 0  0.9765625 0.015625 0  0.984375 0.015625 0  0.9921875 0.015625 0  1 0.015625 0  0 0.0234375 0  0.0078125 0.0234375 0  0.015625 0.0234375 0  0.0234375 0.0234375 0  0.03125 0.0234375 0  0.0390625 0.0234375 0  0.046875 0.0234375 0  0.0546875 0.0234375 0  0.0625 0.0234375 0  0.0703125 0.0234375 0  0.078125 0.0234375 0  0.0859375 0.0234375 0  0.09375 0.0234375 0  0.1015625 0.0234375 0  0.109375 0.0234375 0  0.1171875 0.0234375 0  0.125 0.0234375 0  0.1328125 0.0234375 0  0.140625 0.0234375 0  0.1484375 0.0234375 0  0.15625 0.0234375 0  0.1640625 0.0234375 0  0.171875 0.0234375 0  0.1796875 0.0234375 0  0.1875 0.0234375 0  0.1953125 0.0234375 0  0.203125 0.0234375 0  0.2109375 0.0234375 0  0.21875 0.0234375 0  0.2265625 0.0234375 0  0.234375 0.0234375 0  0.2421875 0.0234375 0  0.25 0.0234375 0  0.2578125 0.0234375 0  0.265625 0.0234375 0  0.2734375 0.0234375 0  0.28125 0.0234375 0  0.2890625 0.0234375 0  0.296875 0.0234375 0  0.3046875 0.0234375 0  0.3125 0.0234375 0  0.3203125 0.0234375 0  0.328125 0.0234375 0  0.3359375 0.0234375 0  0.34375 0.0234375 0  0.3515625 0.0234375 0  0.359375 0.0234375 0  0.3671875 0.0234375 0  0.375 0.0234375 0  0.3828125 0.0234375 0  0.390625 0.0234375 0  0.3984375 0.0234375 0  0.40625 0.0234375 0  0.4140625 0.0234375 0  0.421875 0.0234375 0  0.4296875 0.0234375 0  0.4375 0.0234375 0  0.4453125 0.0234375 0  0.453125 0.0234375 0  0.4609375 0.0234375 0  0.46875 0.0234375 0  0.4765625 0.0234375 0  0.484375 0.0234375 0  0.4921875 0.0234375 0  0.5 0.0234375 0  0.5078125 0.0234375 0  0.515625 0.0234375 0  0.5234375 0.0234375 0  0.53125 0.0234375 0  0.5390625 0.0234375 0  0.546875 0.0234375 0  0.5546875 0.0234375 0  0.5625 0.0234375 0  0.5703125 0.0234375 0  0.578125 0.0234375 0  0.5859375 0.0234375 0  0.59375 0.0234375 0  0.6015625 0.0234375 0  0.609375 0.0234375 0  0.6171875 0.0234375 0  0.625 0.0234375 0  0.6328125 0.0234375 0  0.640625 0.0234375 0  0.6484375 0.0234375 0  0.65625 0.0234375 0  0.6640625 0.0234375 0  0.671875 0.0234375 0  0.6796875 0.0234375 0  0.6875 0.0234375 0  0.6953125 0.0234375 0  0.703125 0.0234375 0  0.7109375 0.0234375 0  0.71875 0.0234375 0  0.7265625 0.0234375 0  0.734375 0.0234375 0  0.7421875 0.0234375 0  0.75 0.0234375 0  0.7578125 0.0234375 0  0.765625 0.0234375 0  0.7734375 0.0234375 0  0.78125 0.0234375 0  0.7890625 0.0234375 0  0.796875 0.0234375 0  0.8046875 0.0234375 0  0.8125 0.0234375 0  0.8203125 0.0234375 0  0.828125 0.0234375 0  0.8359375 0.0234375 0  0.84375 0.0234375 0  0.8515625 0.0234375 0  0.859375 0.0234375 0  0.8671
[...]
<CellData  Scalars="f_42391"> 
<DataArray  type="Float64"  Name="f_42391"  format="ascii">6.9533423696300118e-05   6.9454263900737379e-05   2.1307928544995593e-04   4.0419975799241395e-04   3.6831449087841274e-04   8.6090639366827033e-04   5.0367548753952696e-04   1.3012495086582277e-03   6.0697428174378003e-04   1.6609129436154985e-03   6.8014295028363467e-04   1.9256367311168258e-03   7.2751020123852802e-04   2.1063494761058509e-03   7.5594575481982595e-04   2.2176894210926366e-03   7.7181571054103575e-04   2.2826227817815494e-03   7.7987035187912078e-04   2.3143898972350289e-03   7.8529355793673474e-04   2.3326126847259296e-03   7.8842414332103053e-04   2.3428872505681523e-03   7.8987601153761072e-04   2.3462787021393378e-03   7.9006646895462998e-04   2.3453797312163811e-03   7.8878239952020655e-04   2.3404216414378751e-03   7.8690357536092051e-04   2.3327070962284105e-03   7.8067461333439388e-04   2.3194730638734437e-03   7.6384767229166028e-04   2.2823229167281468e-03   7.3107312293433182e-04   2.2053862953894865e-03   6.7959538414293498e-04   2.0767033402565769e-03   6.1173884440121563e-04   1.8968139770464145e-03   5.3785891638375826e-04   1.6846506896728963e-03   4.6695355383260352e-04   1.4736291967520194e-03   4.0568364231685671e-04   1.2803757697694169e-03   3.5991895983599208e-04   1.1266596334196682e-03   3.4709420191377546e-04   1.0547494354500337e-03   3.4186699194797804e-04   1.0345507903667575e-03   3.4227013205773290e-04   1.0277917736074421e-03   3.4942922031768950e-04   1.0399390560182180e-03   3.6559483947040943e-04   1.0734571532218927e-03   4.0364342383471247e-04   1.1531272192209473e-03   4.7094310156419838e-04   1.3096136861951717e-03   5.8330822958999908e-04   1.5744508572411663e-03   7.6227987381387676e-04   2.0092444777305507e-03   1.0188969772180474e-03   2.6600352177294059e-03   1.3585314533093879e-03   3.5549319802482700e-03   1.7556336997572772e-03   4.6614358117446535e-03   2.1593853772797229e-03   5.8660021688886656e-03   2.5057783266766447e-03   6.9907520814396452e-03   2.7383767193028905e-03   7.8602991901296753e-03   2.8231133645969650e-03   8.3303217599463644e-03   2.7653507785998809e-03   8.3640267164651182e-03   2.6012016802350471e-03   8.0222717775688263e-03   2.3853290913070616e-03   7.4460190922754077e-03   2.1695625234643568e-03   6.7976914923533896e-03   1.9870564841628774e-03   6.2016673513686340e-03   1.8500658196986307e-03   5.7330343588054659e-03   1.7488220400071247e-03   5.3844058300288287e-03   1.6640294194672418e-03   5.1102419697229128e-03   1.5786284006931493e-03   4.8566783894625895e-03   1.4807343762327535e-03   4.5811232439873333e-03   1.3650330668663242e-03   4.2576525670716195e-03   1.2331502699399249e-03   3.8828597944078288e-03   1.0888563286707753e-03   3.4645192823593868e-03   9.3848252060244432e-04   3.0188894905684624e-03   7.8808918440164430e-04   2.5654567138258238e-03   6.4344639752477275e-04   2.1216297830832275e-03   5.0761849902926186e-04   1.7018018002906935e-03   3.8290872838809788e-04   1.3106077096480058e-03   2.7242729674803744e-04   9.5984195805713028e-04   1.8990538835753740e-04   6.6966841167856309e-04   1.2939688589053483e-04   4.7111948898577368e-04   7.9281038516049564e-05   3.0656763777992262e-04   3.7530845122690134e-05   1.7001421955830997e-04   2.2703577704879683e-06   5.5659653984222344e-05   0.0000000000000000e+00   0.0000000000000000e+00   0.0000000000000000e+00   0.0000000000000000e+00   0.0000000000000000e+00   0.0000000000000000e+00   0.0000000000000000e+00   0.0000000000000000e+00   0.0000000000000000e+00   0.0000000000000000e+00   0.0000000000000000e+00   0.0000000000000000e+00   0.0000000000000000e+00   0.0000000000000000e+00   0.0000000000000000e+00   0.0000000000000000e+00   0.0000000000000000e+00   0.0000000000000000e+00   0.0000000000000000e+00   1.8201283605874266e-05   0.0000000000000000e+00   0.0000000000000000e+00   0.0000000000000000e+00   0.0000000000000000e+00   0.0000000000000000e+00   0.0000000000000000e+00   0.0000000000000000e+00   0.0000000000000000e+00   0.0000000000000000e+00   0.0000000000000000e+00   0.0000000000000000e+00   0.0000000000000000e+00   0.0000000000000000e+00   0.0000000000000000e+00   0.0000000000000000e+00   0.0000000000000000e+00   0.0000000000000000e+00   0.0000000000000000e+00   0.0000000000000000e+00   0.0000000000000000e+00   0.0000000000000000e+00   0.0000000000000000e+00   0.0000000000000000e+00   0.0000000000000000e+00   0.0000000000000000e+00   0.0000000000000000e+00   0.0000000000000000e+00   0.0000000000000000e+00   0.0000000000000000e+00   0.0000000000000000e+00   0.0000000000000000e+00   0.0000000000000000e+00   0.0000000000000000e+00   0.0000000000000000e+00   0.0000000000000000e+00   0.0000000000000000e+00   0.0000000000000000e+00   0.0000000000000000e+00   0.0000000000000000e+00   0.0000000000000000e+00   0.0000000000000000e+00   0.0000000000000000e+00   0.0000000000000000e+00   0.0000000000000000e+00   0.0000000000000000e+00   0.0000000000000000e+00   0.0000000000000000e+00   0.0000000000000000e+00   0.0000000000000000e+00   0.0000000000000000e+00   0.0000000000000000e+00   0.0000000000000000e+00   0.0000000000000000e+00   0.0000000000000000e+00   0.0000000000000000e+00   0.0000000000000000e+00   0.0000000000000000e+00   0.0000000000000000e+00   0.0000000000000000e+00   0.0000000000000000e+00   0.0000000000000000e+00   0.0000000000000000e+00   0.0000000000000000e+00   0.0000000000000000e+00   0.0000000000000000e+00   0.0000000000000000e+00   0.0000000000000000e+00   0.0000000000000000e+00   0.0000000000000000e+00   0.0000000000000000e+00   0.0000000000000000e+00   0.0000000000000000e+00   0.0000000000000000e+00   0.0000000000000000e+00   0.0000000000000000e+00   0.0000000000000000e+00   0.0000000000000000e+00   0.0000000000000000e+00   0.0000000000000000e+00   0.0000000000000000e+00   0.0000000000000000e+00   0.0000000000000000e+00   0.0000000000000000e+00   0.0000000000000000e+00   0.0000000000000000e+00   0.0000000000000000e+00   0.0000000000000000e+00   0.0000000000000000e+00   0.0000000000000000e+00   0.0000000000000000e+00   0.0000000000000000e+00   0.0000000000000000e+00   4.8603160516431660e-04   2.9941361362065814e-04   1.2911227562251058e-03   2.6224371868839805e-03   1.9229918687184864e-03   4.8010362315224460e-03   2.0882278932604346e-03   6.0140466960580796e-03   1.5965294076240592e-03   5.5074861038200886e-03   6.2247343973280953e-04   3.2161086154370998e-03   0.0000000000000000e+00   6.2251433008005965e-04   4.0094310886927109e-04   2.1012413311942337e-04   1.6736828094292275e-03   1.6660164813957772e-03   3.2273839563442164e-03   3.8608394208237040e-03   4.6712050823363282e-03   6.0891905769589801e-03   5.8277190846668468e-03   7.9822745586684129e-03   6.6834240979072295e-03   9.4343369829761863e-03   7.2574327765058651e-03   1.0458691227019867e-02   7.6133447568139390e-03   1.1116598331854877e-02   7.8154643941651929e-03   1.1515870214128131e-02   7.9130962836966804e-03   1.1715810088551430e-02   7.9714607488158961e-03   1.1833233452786895e-02   7.9909793607986536e-03   1.1884028942445685e-02   7.9844045131047432e-03   1.1882011165833060e-02   7.9603820911099410e-03   1.1846630130686975e-02   7.9213752502398475e-03   1.1786331818204770e-02   7.8827475408323328e-03   1.1715334813866158e-02   7.8122834862599296e-03   1.1632096277884566e-02   7.6519641396598486e-03   1.1444421693919441e-02   7.3503612065247042e-03   1.1078000638285585e-02   6.8771962013843609e-03   1.0472351949341034e-02   6.2451241302099031e-03   9.6246994995324315e-03   5.5470496369177686e-03   8.6172583307409997e-03   4.8646774601523142e-03   7.6101182050889293e-03   4.2609261679163422e-03   6.6764017477193589e-03   3.7996801685646888e-03   5.9252617642861554e-03   3.6619954225211148e-03   5.5518557346361736e-03   3.6104511106182613e-03   5.4624649683959504e-03   3.6132994563385225e-03   5.4392726950403987e-03   3.6760326425000077e-03   5.5113267194018484e-03   3.8152367869362324e-03   5.6780213682061150e-03   4.1523313171483618e-03   6.0553059184585787e-03   4.7435777901138716e-03   6.7825562530347749e-03   5.7257712846037210e-03   7.9843955273580184e-03   7.3047079861686456e-03   9.9394807392571508e-03   9.5868149358932283e-03   1.2856241205734330e-02   1.2654357975817302e-02   1.6863727239427802e-02   1.6319037376159626e-02   2.1844621519887773e-02   2.0146555370542683e-02   2.7295083408266724e-02   2.3576135305792886e-02   3.2457052218966456e-02   2.6070726025658634e-02   3.6567409184134939e-02   2.7263779694781935e-02   3.8981642631337458e-02   2.7124841096109940e-02   3.9505585965908308e-02   2.5918504942155831e-02   3.8362968947462800e-02   2.4115945026019121e-02   3.6138896317316128e-02   2.2203875016205951e-02   3.3530944173909352e-02   2.0527702565298105e-02   3.1087326043304612e-02   1.9237806299224711e-02   2.9161024154945245e-02   1.8270003792201058e-02   2.7709449913024979e-02   1.7451328197458194e-02   2.6528188299092707e-02   1.6619759891982767e-02   2.5371788000795290e-02   1.5653293900772011e-02   2.4044734279562534e-02   1.4493481428777787e-02   2.2430091298849937e-02   1.3152449407443898e-02   2.0520753103898438e-02   1.1666689314046819e-02   1.8363751018268325e-02   1.0102263773261497e-02   1.6047363943425649e-02   8.5254117913904984e-03   1.3677486040368765e-02   7.0015423806026765e-03   1.1349417488973852e-02   5.5636996475735868e-03   9.1425096281741360e-03   4.2366333702275310e-03   7.0787309692976336e-03   3.0532224834507694e-03   5.2232393073970420e-03   2.1596174292219097e-03   3.6819782052704233e-03   1.4944025671546311e-03   2.6070638032020797e-03   9.4164610731577538e-04   1.7118535454071404e-03   4.8117857864775446e-04   9.6592220003825075e-04   9.3387890977627620e-05   3.3975936401149615e-04   0.0000000000000000e+00   0.0000000000000000e+00   0.0000000000000000e+00   0.0000000000000000e+00   0.0000000000000000e+00   0.0000000000000000e+00   0.0000000000000000e+00   0.0000000000000000e+00   0.0000000000000000e+00   0.0000000000000000e+00   0.0000000000000000e+00   0.0000000000000000e+00   0.0000000000000000e+00   0.0000000000000000e+00   0.0000000000000000e+00   0.0000000000000000e+00   1.1910058752513455e-04   0.0000000000000000e+00   0.0000000000000000e+00   0.0000000000000000e+00   0.0000000000000000e+00   0.0000000000000000e+00   0.0000000000000000e+00   0.0000000000000000e+00   0.0000000000000000e+00   0.0000000000000000e+00   0.0000000000000000e+00   0.0000000000000000e+00   0.0000000000000000e+00   0.0000000000000000e+00   0.0000000000000000e+00   0.0000000000000000e+00   0.0000000000000000e+00   0.0000000000000000e+00   0.0000000000000000e+00   0.0000000000000000e+00   0.0000000000000000e+00   0.0000000000000000e+00   0.0000000000000000e+00   0.0000000000000000e+00   0.0000000000000000e+00   0.0000000000000000e+00   0.0000000000000000e+00   0.0000000000000000e+00   0.0000000000000000e+00   0.0000000000000000e+00   0.0000000000000000e+00   0.0000000000000000e+00   0.0000000000000000e+00   0.0000000000000000e+00   0.0000000000000000e+00   0.0000000000000000e+00   0.0000000000000000e+00   0.0000000000000000e+00   0.0000000000000000e+00   0.0000000000000000e+00   0.0000000000000000e+00   0.0000000000000000e+00   0.0000000000000000e+00   0.0000000000000000e+00   0.0000000000000000e+00   0.0000000000000000e+00   0.0000000000000000e+00   0.0000000000000000e+00   0.0000000000000000e+00   0.0000000000000000e+00   0.0000000000000000e+00   0.0000000000000000e+00   0.0000000000000000e+00   0.0000000000000000e+00   0.0000000000000000e+00   0.0000000000000000e+00   0.0000000000000000e+00   0.0000000000000000e+00   0.0000000000000000e+00   0.0000000000000000e+00   0.0000000000000000e+00   0.0000000000000000e+00   0.0000000000000000e+00   0.0000000000000000e+00   0.0000000000000000e+00   0.0000000000000000e+00   0.0000000000000000e+00   0.0000000000000000e+00   0.0000000000000000e+00   0.0000000000000000e+00   0.0000000000000000e+00   0.0000000000000000e+00   0.0000000000000000e+00   0.0000000000000000e+00   0.0000000000000000e+00   0.0000000000000000e+00   0.0000000000000000e+00   0.0000000000000000e+00   0.0000000000000000e+00   0.0000000000000000e+00   0.0000000000000000e+00   0.0000000000000000e+00   0.0000000000000000e+00   0.0000000000000000e+00   0.0000000000000000e+00   0.0000000000000000e+00   0.0000000000000000e+00   0.0000000000000000e+00   0.0000000000000000e+00   0.0000000000000000e+00   0.0000000000000000e+00   0.0000000000000000e+00   0.0000000000000000e+00   0.0000000000000000e+00   0.0000000000000000e+00   0.0000000000000000e+00   6.0730499353275230e-04   0.0000000000000000e+00   7.8920221974696989e-03   5.6342118035527982e-03   1.4235538726795669e-02   1.5298604507021262e-02   1.7070665490850612e-02   2.1420785842961403e-02   1.4447816759220673e-02   2.0826998219316831e-02   7.0842075670546137e-03   1.2974169258839541e-02   6.2067716341751621e-04   2.9830893292605788e-03   8.3984933097175851e-04   3.5643720152930201e-04   3.8148040905727405e-03   3.1532567428291559e-03   7.6887550348908257e-03   7.6385005645765195e-03   1.1453096899993943e-02   1.2392916715455301e-02   1.4598453142206178e-02   1.6587587749132132e-02   1.7020274000424458e-02   1.9956565566177663e-02   1.8710953144492063e-02   2.2413414671784815e-02   1.9809258667937975e-02   2.4063775152931201e-02   2.0466046970920446e-02   2.5112207486600945e-02   2.0787617973095262e-02   2.5669256021106777e-02   2.0994740741752570e-02   2.5996373663012516e-02   2.1042850720892525e-02   2.6121556797061091e-02   2.0989448356409295e-02   2.6083022228446138e-02   2.0870751180559935e-02   2.5939600756296626e-02   2.0707966537574049e-02   2.5729368360331302e-02   2.0561041023978210e-02   2.5506914672259001e-02   2.0354538510132643e-02   2.5288140324163183e-02   1.9943933444910075e-02   2.4878404194978703e-02   1.9200514188293195e-02   2.4123201647418054e-02   1.8045180631980542e-02   2.2892453798893323e-02   1.6510640729227668e-02   2.1178534355109708e-02   1.4789262954040318e-02   1.9150818334784932e-02   1.3109494216270343e-02   1.7080994237019746e-02   1.1609471081232628e-02   1.5164418591983198e-02   1.0454087855135670e-02   1.3609926912621815e-02   1.0058317530940306e-02   1.2748770931121776e-02   9.9531967765858070e-03   1.2595063329241219e-02   1.0002440510426275e-02   1.2597814552692781e-02   1.0198205388772592e-02   1.2804342273214296e-02   1.0569937735875817e-02   1.3200802211809710e-02   1.1426053033833898e-02   1.4014482014468135e-02   1.2866087774046669e-02   1.5516880869917723e-02   1.5175068081451642e-02   1.7892760518179125e-02   1.8847940209546742e-02   2.1664319866318969e-02   2.4074418334009490e-02   2.7199604128347144e-02   3.1057799771774457e-02   3.4712142265226911e-02   3.9365769409171546e-02   4.4008311932816749e-02   4.8015306432501952e-02   5.4087156781263059e-02   5.5835514673120958e-02   6.3659745962561756e-02   6.1684742492462134e-02   7.1418494977089755e-02   6.4802144402807835e-02   7.6281234875899370e-02   6.5093494454110279e-02   7.7913072012488149e-02   6.3102322579060316e-02   7.6690537492457383e-02   5.9802597847374239e-02   7.3599548458513908e-02   5.6205671635031942e-02   6.9807114717484159e-02   5.3053229668065444e-02   6.6238996903887987e-02   5.0618153623002204e-02   6.3466483735348148e-02   4.8751275324151841e-02   6.1344508105913811e-02   4.7033365914030616e-02   5.9463673817823616e-02   4.5101481995442692e-02   5.7358928426991349e-02   4.2678788053526123e-02   5.4664747686064656e-02   3.9654241658626355e-02   5.1191910731773475e-02   3.6086816538280136e-02   4.6970184212852727e-02   3.2093038252344913e-02   4.2138314823704247e-02   2.7859788430721798e-02   3.6910238996992265e-02   2.3575029061874659e-02   3.1537175260937626e-02   1.9428208308979147e-02   2.6244988152346469e-02   1.5500747455004966e-02   2.1222471970431360e-02   1.1870704155062400e-02   1.6514554961051676e-02   8.6207044250365562e-03   1.2266659265127652e-02   6.1510080602529141e-03   8.7327741297991354e-03   4.2771300238392601e-03   6.2071447283725770e-03   2.7109542020688411e-03   4.0910260606327022e-03   1.3992702530459633e-03   2.3170334962651744e-03   2.9053086186410303e-04   8.2057250780845695e-04   0.0000000000000000e+00   0.0000000000000000e+00   0.0000000000000000e+00   0.0000000000000000e+00   0.0000000000000000e+00   0.0000000000000000e+00   0.0000000000000000e+00   0.0000000000000000e+00   0.0000000000000000e+00   0.0000000000000000e+00   0.0000000000000000e+00   0.0000000000000000e+00   0.0000000000000000e+00   0.0000000000000000e+00   0.0000000000000000e+00   0.0000000000000000e+00   0.0000000000000000e+00   0.0000000000000000e+00   0.0000000000000000e+00   0.0000000000000000e+00   0.0000000000000000e+00   0.0000000000000000e+00   0.0000000000000000e+00   0.0000000000000000e+00   0.0000000000000000e+00   0.0000000000000000e+00   0.0000000000000000e+00   0.0000000000000000e+00   0.0000000000000000e+00   0.0000000000000000e+00   0.0000000000000000e+00   0.0000000000000000e+00   0.0000000000000000e+00   0.0000000000000000e+00   0.0000000000000000e+00   0.0000000000000000e+00   0.0000000000000000e+00   0.0000000000000000e+00   0.0000000000000000e+00   0.0000000000000000e+00   0.0000000000000000e+00   0.0000000000000000e+00   0.0000000000000000e+00   0.0000000000000000e+00   0.0000000000000000e+00   0.0000000000000000e+00   0.0000000000000000e+00   0.0000000000000000e+00   0.0000000000000000e+00   0.0000000000000000e+00   0.0000000000000000e+00   0.0000000000000000e+00   0.0000000000000000e+00   0.0000000000000000e+00   0.0000000000000000e+00   0.0000000000000000e+00   0.0000000000000000e+00   0.0000000000000000e+00   0.0000000000000000e+00   0.0000000000000000e+00   0.0000000000000000e+00   0.0000000000000000e+00   0.0000000000000000e+00   0.0000000000000000e+00   0.0000000000000000e+00   0.0000000000000000e+00   0.0000000000000000e+00   0.0000000000000000e+00   0.0000000000000000e+00   0.0000000000000000e+00   0.0000000000000000e+00   0.0000000000000000e+00   0.0000000000000000e+00   0.0000000000000000e+00   0.0000000000000000e+00   0.0000000000000000e+00   0.0000000000000000e+00   0.0000000000000000e+00   0.0000000000000000e+00   0.0000000000000000e+00   0.0000000000000000e+00   0.0000000000000000e+00   0.0000000000000000e+00   0.0000000000000000e+00   0.0000000000000000e+00   0.0000000000000000e+00   0.0000000000000000e+00   0.0000000000000000e+00   0.0000000000000000e+00   0.0000000000000000e+00   0.0000000000000000e+00   0.0000000000000000e+00   0.0000000000000000e+00   0.0000000000000000e+00   0.0000000000000000e+00   0.0000000000000000e+00   0.0000000000000000e+00   0.0000000000000000e+00   0.0000000000000000e+00   0.0000000000000000e+00   0.0000000000000000e+00   0.0000000000000000e+00   0.0000000000000000e+00   0.0000000000000000e+00   0.0000000000000000e+00   0.0000000000000000e+00   0.0000000000000000e+00   0.0000000000000000e+00   0.0000000000000000e+00   0.0000000000000000e+00   0.0000000000000000e+00   0.0000000000000000e+00   0.0000000000000000e+00   0.0000000000000000e+00   5.5454626428430324e-03   0.0000000000000000e+00   1.9645042007050056e-02   1.1743790105484703e-02   2.7305261446044445e-02   2.4089551813092063e-02   2.4599250343383890e-02   2.6362092212042474e-02   1.2694078248918089e-02   1.7431793316430782e-02   1.4155253989077351e-03   4.3354931973568628e-03   1.2437417126567602e-03   4.7758376749993379e-04   5.8953389866274655e-03   4.4696733045293284e-03   1.2224011407596533e-02   1.1145459175878747e-02   1.8613072944167145e-02   1.8485497314354709e-02   2.4205240245921623e-02   2.5254703015115131e-02   2.8645105996112800e-02   3.0860320890018958e-02   3.1874520866754283e-02   3.5104118236487881e-02   3.4065151722655881e-02   3.8076322295863572e-02   3.5438524520131486e-02   4.0044963006264471e-02   3.6169375791860872e-02   4.1162168592155463e-02   3.6596761109520461e-02   4.1798759564680057e-02   3.6682080622199860e-02   4.2033075961241145e-02   3.6525823126439226e-02   4.1920844405998615e-02   3.6217565968508454e-02   4.1584221651100255e-02   3.58244056